
     Program PWSCF v.6.7MaX starts on  1Apr2024 at 15:13:34 

     This program is part of the open-source Quantum ESPRESSO suite
     for quantum simulation of materials; please cite
         "P. Giannozzi et al., J. Phys.:Condens. Matter 21 395502 (2009);
         "P. Giannozzi et al., J. Phys.:Condens. Matter 29 465901 (2017);
          URL http://www.quantum-espresso.org", 
     in publications or presentations arising from this work. More details at
     http://www.quantum-espresso.org/quote

     Parallel version (MPI), running on     4 processors

     MPI processes distributed on     1 nodes
     R & G space division:  proc/nbgrp/npool/nimage =       4
     Waiting for input...
     Reading input from standard input

     Current dimensions of program PWSCF are:
     Max number of different atomic species (ntypx) = 10
     Max number of k-points (npk) =  40000
     Max angular momentum in pseudopotentials (lmaxx) =  3

     Atomic positions and unit cell read from directory:
     ../tmp/alp.save/
     Atomic positions from file used, from input discarded

     file Al.rel-pbe-n-kjpaw_psl.1.0.0.UPF: wavefunction(s)  3S 3P 3P renormalized
     file P.rel-pbe-n-kjpaw_psl.1.0.0.UPF: wavefunction(s)  3S 3P 3P renormalized

     Subspace diagonalization in iterative solution of the eigenvalue problem:
     one sub-group per band group will be used
     scalapack distributed-memory algorithm (size of sub-group:  2*  2 procs)


     Parallelization info
     --------------------
     sticks:   dense  smooth     PW     G-vecs:    dense   smooth      PW
     Min         219     109     34                 4315     1545     266
     Max         220     110     35                 4316     1546     267
     Sum         877     439    139                17261     6183    1067



     bravais-lattice index     =            2
     lattice parameter (alat)  =      10.3400  a.u.
     unit-cell volume          =     276.3768 (a.u.)^3
     number of atoms/cell      =            2
     number of atomic types    =            2
     number of electrons       =         8.00
     number of Kohn-Sham states=           16
     kinetic-energy cutoff     =      30.0000  Ry
     charge density cutoff     =     240.0000  Ry
     Exchange-correlation= SLA  PW   PBX  PBC
                           (   1   4   3   4   0   0   0)
     Non magnetic calculation with spin-orbit


     celldm(1)=  10.340000  celldm(2)=   0.000000  celldm(3)=   0.000000
     celldm(4)=   0.000000  celldm(5)=   0.000000  celldm(6)=   0.000000

     crystal axes: (cart. coord. in units of alat)
               a(1) = (  -0.500000   0.000000   0.500000 )  
               a(2) = (   0.000000   0.500000   0.500000 )  
               a(3) = (  -0.500000   0.500000   0.000000 )  

     reciprocal axes: (cart. coord. in units 2 pi/alat)
               b(1) = ( -1.000000 -1.000000  1.000000 )  
               b(2) = (  1.000000  1.000000  1.000000 )  
               b(3) = ( -1.000000  1.000000 -1.000000 )  


     PseudoPot. # 1 for Al read from file:
     ../pseudo/Al.rel-pbe-n-kjpaw_psl.1.0.0.UPF
     MD5 check sum: dd46ca3b97fcdce4065e001a8b71f70f
     Pseudo is Projector augmented-wave + core cor, Zval =  3.0
     Generated using &quot;atomic&quot; code by A. Dal Corso  v.6.5
     Shape of augmentation charge: PSQ
     Using radial grid of 1135 points, 10 beta functions with: 
                l(1) =   0
                l(2) =   0
                l(3) =   1
                l(4) =   1
                l(5) =   1
                l(6) =   1
                l(7) =   2
                l(8) =   2
                l(9) =   2
               l(10) =   2
     Q(r) pseudized with 0 coefficients 


     PseudoPot. # 2 for P  read from file:
     ../pseudo/P.rel-pbe-n-kjpaw_psl.1.0.0.UPF
     MD5 check sum: b8b1f41b72eb33979940a8684e520c22
     Pseudo is Projector augmented-wave + core cor, Zval =  5.0
     Generated using &quot;atomic&quot; code by A. Dal Corso  v.6.5
     Shape of augmentation charge: PSQ
     Using radial grid of 1147 points, 10 beta functions with: 
                l(1) =   0
                l(2) =   0
                l(3) =   1
                l(4) =   1
                l(5) =   1
                l(6) =   1
                l(7) =   2
                l(8) =   2
                l(9) =   2
               l(10) =   2
     Q(r) pseudized with 0 coefficients 


     atomic species   valence    mass     pseudopotential
        Al             3.00    26.98154     Al( 1.00)
        P              5.00    30.97376     P ( 1.00)

     24 Sym. Ops. (no inversion) found



   Cartesian axes

     site n.     atom                  positions (alat units)
         1           Al  tau(   1) = (   0.0000000   0.0000000   0.0000000  )
         2           P   tau(   2) = (  -0.2500000   0.2500000   0.2500000  )

     number of k points=    91  Marzari-Vanderbilt smearing, width (Ry)=  0.0200
                       cart. coord. in units 2pi/alat
        k(    1) = (   0.5000000   0.5000000   0.5000000), wk =   0.0109890
        k(    2) = (   0.4750000   0.4750000   0.4750000), wk =   0.0109890
        k(    3) = (   0.4500000   0.4500000   0.4500000), wk =   0.0109890
        k(    4) = (   0.4250000   0.4250000   0.4250000), wk =   0.0109890
        k(    5) = (   0.4000000   0.4000000   0.4000000), wk =   0.0109890
        k(    6) = (   0.3750000   0.3750000   0.3750000), wk =   0.0109890
        k(    7) = (   0.3500000   0.3500000   0.3500000), wk =   0.0109890
        k(    8) = (   0.3250000   0.3250000   0.3250000), wk =   0.0109890
        k(    9) = (   0.3000000   0.3000000   0.3000000), wk =   0.0109890
        k(   10) = (   0.2750000   0.2750000   0.2750000), wk =   0.0109890
        k(   11) = (   0.2500000   0.2500000   0.2500000), wk =   0.0109890
        k(   12) = (   0.2250000   0.2250000   0.2250000), wk =   0.0109890
        k(   13) = (   0.2000000   0.2000000   0.2000000), wk =   0.0109890
        k(   14) = (   0.1750000   0.1750000   0.1750000), wk =   0.0109890
        k(   15) = (   0.1500000   0.1500000   0.1500000), wk =   0.0109890
        k(   16) = (   0.1250000   0.1250000   0.1250000), wk =   0.0109890
        k(   17) = (   0.1000000   0.1000000   0.1000000), wk =   0.0109890
        k(   18) = (   0.0750000   0.0750000   0.0750000), wk =   0.0109890
        k(   19) = (   0.0500000   0.0500000   0.0500000), wk =   0.0109890
        k(   20) = (   0.0250000   0.0250000   0.0250000), wk =   0.0109890
        k(   21) = (   0.0000000   0.0000000   0.0000000), wk =   0.0109890
        k(   22) = (   0.0333333   0.0000000   0.0000000), wk =   0.0109890
        k(   23) = (   0.0666667   0.0000000   0.0000000), wk =   0.0109890
        k(   24) = (   0.1000000   0.0000000   0.0000000), wk =   0.0109890
        k(   25) = (   0.1333333   0.0000000   0.0000000), wk =   0.0109890
        k(   26) = (   0.1666667   0.0000000   0.0000000), wk =   0.0109890
        k(   27) = (   0.2000000   0.0000000   0.0000000), wk =   0.0109890
        k(   28) = (   0.2333333   0.0000000   0.0000000), wk =   0.0109890
        k(   29) = (   0.2666667   0.0000000   0.0000000), wk =   0.0109890
        k(   30) = (   0.3000000   0.0000000   0.0000000), wk =   0.0109890
        k(   31) = (   0.3333333   0.0000000   0.0000000), wk =   0.0109890
        k(   32) = (   0.3666667   0.0000000   0.0000000), wk =   0.0109890
        k(   33) = (   0.4000000   0.0000000   0.0000000), wk =   0.0109890
        k(   34) = (   0.4333333   0.0000000   0.0000000), wk =   0.0109890
        k(   35) = (   0.4666667   0.0000000   0.0000000), wk =   0.0109890
        k(   36) = (   0.5000000   0.0000000   0.0000000), wk =   0.0109890
        k(   37) = (   0.5333333   0.0000000   0.0000000), wk =   0.0109890
        k(   38) = (   0.5666667   0.0000000   0.0000000), wk =   0.0109890
        k(   39) = (   0.6000000   0.0000000   0.0000000), wk =   0.0109890
        k(   40) = (   0.6333333   0.0000000   0.0000000), wk =   0.0109890
        k(   41) = (   0.6666667   0.0000000   0.0000000), wk =   0.0109890
        k(   42) = (   0.7000000   0.0000000   0.0000000), wk =   0.0109890
        k(   43) = (   0.7333333   0.0000000   0.0000000), wk =   0.0109890
        k(   44) = (   0.7666667   0.0000000   0.0000000), wk =   0.0109890
        k(   45) = (   0.8000000   0.0000000   0.0000000), wk =   0.0109890
        k(   46) = (   0.8333333   0.0000000   0.0000000), wk =   0.0109890
        k(   47) = (   0.8666667   0.0000000   0.0000000), wk =   0.0109890
        k(   48) = (   0.9000000   0.0000000   0.0000000), wk =   0.0109890
        k(   49) = (   0.9333333   0.0000000   0.0000000), wk =   0.0109890
        k(   50) = (   0.9666667   0.0000000   0.0000000), wk =   0.0109890
        k(   51) = (   1.0000000   0.0000000   0.0000000), wk =   0.0109890
        k(   52) = (   1.0000000   0.0250000   0.0250000), wk =   0.0109890
        k(   53) = (   1.0000000   0.0500000   0.0500000), wk =   0.0109890
        k(   54) = (   1.0000000   0.0750000   0.0750000), wk =   0.0109890
        k(   55) = (   1.0000000   0.1000000   0.1000000), wk =   0.0109890
        k(   56) = (   1.0000000   0.1250000   0.1250000), wk =   0.0109890
        k(   57) = (   1.0000000   0.1500000   0.1500000), wk =   0.0109890
        k(   58) = (   1.0000000   0.1750000   0.1750000), wk =   0.0109890
        k(   59) = (   1.0000000   0.2000000   0.2000000), wk =   0.0109890
        k(   60) = (   1.0000000   0.2250000   0.2250000), wk =   0.0109890
        k(   61) = (   1.0000000   0.2500000   0.2500000), wk =   0.0109890
        k(   62) = (   0.9666667   0.2416667   0.2416667), wk =   0.0109890
        k(   63) = (   0.9333333   0.2333333   0.2333333), wk =   0.0109890
        k(   64) = (   0.9000000   0.2250000   0.2250000), wk =   0.0109890
        k(   65) = (   0.8666667   0.2166667   0.2166667), wk =   0.0109890
        k(   66) = (   0.8333333   0.2083333   0.2083333), wk =   0.0109890
        k(   67) = (   0.8000000   0.2000000   0.2000000), wk =   0.0109890
        k(   68) = (   0.7666667   0.1916667   0.1916667), wk =   0.0109890
        k(   69) = (   0.7333333   0.1833333   0.1833333), wk =   0.0109890
        k(   70) = (   0.7000000   0.1750000   0.1750000), wk =   0.0109890
        k(   71) = (   0.6666667   0.1666667   0.1666667), wk =   0.0109890
        k(   72) = (   0.6333333   0.1583333   0.1583333), wk =   0.0109890
        k(   73) = (   0.6000000   0.1500000   0.1500000), wk =   0.0109890
        k(   74) = (   0.5666667   0.1416667   0.1416667), wk =   0.0109890
        k(   75) = (   0.5333333   0.1333333   0.1333333), wk =   0.0109890
        k(   76) = (   0.5000000   0.1250000   0.1250000), wk =   0.0109890
        k(   77) = (   0.4666667   0.1166667   0.1166667), wk =   0.0109890
        k(   78) = (   0.4333333   0.1083333   0.1083333), wk =   0.0109890
        k(   79) = (   0.4000000   0.1000000   0.1000000), wk =   0.0109890
        k(   80) = (   0.3666667   0.0916667   0.0916667), wk =   0.0109890
        k(   81) = (   0.3333333   0.0833333   0.0833333), wk =   0.0109890
        k(   82) = (   0.3000000   0.0750000   0.0750000), wk =   0.0109890
        k(   83) = (   0.2666667   0.0666667   0.0666667), wk =   0.0109890
        k(   84) = (   0.2333333   0.0583333   0.0583333), wk =   0.0109890
        k(   85) = (   0.2000000   0.0500000   0.0500000), wk =   0.0109890
        k(   86) = (   0.1666667   0.0416667   0.0416667), wk =   0.0109890
        k(   87) = (   0.1333333   0.0333333   0.0333333), wk =   0.0109890
        k(   88) = (   0.1000000   0.0250000   0.0250000), wk =   0.0109890
        k(   89) = (   0.0666667   0.0166667   0.0166667), wk =   0.0109890
        k(   90) = (   0.0333333   0.0083333   0.0083333), wk =   0.0109890
        k(   91) = (   0.0000000   0.0000000   0.0000000), wk =   0.0109890

     Dense  grid:    17261 G-vectors     FFT dimensions: (  40,  40,  40)

     Smooth grid:     6183 G-vectors     FFT dimensions: (  25,  25,  25)

     Estimated max dynamical RAM per process >      50.87 MB

     Estimated total dynamical RAM >     203.47 MB

     The potential is recalculated from file :
     ../tmp/alp.save/charge-density

     Starting wfcs are   16 randomized atomic wfcs
     Checking if some PAW data can be deallocated... 

     Band Structure Calculation
     Davidson diagonalization with overlap

     ethr =  1.25E-12,  avg # of iterations = 48.8

     total cpu time spent up to now is       23.1 secs

     End of band structure calculation

          k = 0.5000 0.5000 0.5000 (   778 PWs)   bands (ev):

    -4.8555  -4.8555  -0.5485  -0.5485   4.1723   4.1723   4.2099   4.2099
     7.7435   7.7435   9.7603   9.7603   9.7712   9.7712  13.2152  13.2152

          k = 0.4750 0.4750 0.4750 (   775 PWs)   bands (ev):

    -4.8728  -4.8728  -0.5174  -0.5174   4.1757   4.1757   4.2133   4.2133
     7.7490   7.7490   9.7665   9.7665   9.7775   9.7775  13.2148  13.2148

          k = 0.4500 0.4500 0.4500 (   769 PWs)   bands (ev):

    -4.9232  -4.9232  -0.4260  -0.4260   4.1861   4.1861   4.2237   4.2237
     7.7654   7.7654   9.7849   9.7849   9.7960   9.7961  13.2117  13.2117

          k = 0.4250 0.4250 0.4250 (   769 PWs)   bands (ev):

    -5.0020  -5.0020  -0.2787  -0.2787   4.2032   4.2032   4.2408   4.2408
     7.7927   7.7927   9.8144   9.8144   9.8258   9.8259  13.1999  13.1999

          k = 0.4000 0.4000 0.4000 (   769 PWs)   bands (ev):

    -5.1033  -5.1033  -0.0819  -0.0819   4.2271   4.2271   4.2647   4.2647
     7.8307   7.8307   9.8536   9.8536   9.8654   9.8655  13.1683  13.1683

          k = 0.3750 0.3750 0.3750 (   763 PWs)   bands (ev):

    -5.2206  -5.2206   0.1574   0.1574   4.2573   4.2573   4.2950   4.2950
     7.8790   7.8790   9.9001   9.9001   9.9124   9.9125  13.1003  13.1003

          k = 0.3500 0.3500 0.3500 (   769 PWs)   bands (ev):

    -5.3479  -5.3479   0.4328   0.4328   4.2938   4.2938   4.3314   4.3314
     7.9374   7.9374   9.9504   9.9504   9.9633   9.9634  12.9764  12.9764

          k = 0.3250 0.3250 0.3250 (   769 PWs)   bands (ev):

    -5.4799  -5.4799   0.7385   0.7385   4.3360   4.3360   4.3737   4.3737
     8.0051   8.0051  10.0000  10.0000  10.0136  10.0138  12.7829  12.7829

          k = 0.3000 0.3000 0.3000 (   769 PWs)   bands (ev):

    -5.6125  -5.6125   1.0693   1.0693   4.3835   4.3835   4.4213   4.4213
     8.0814   8.0814  10.0430  10.0430  10.0575  10.0577  12.5202  12.5202

          k = 0.2750 0.2750 0.2750 (   769 PWs)   bands (ev):

    -5.7422  -5.7422   1.4208   1.4208   4.4357   4.4357   4.4735   4.4735
     8.1650   8.1650  10.0725  10.0725  10.0879  10.0882  12.2021  12.2021

          k = 0.2500 0.2500 0.2500 (   778 PWs)   bands (ev):

    -5.8666  -5.8666   1.7889   1.7889   4.4916   4.4916   4.5295   4.5295
     8.2543   8.2543  10.0814  10.0814  10.0979  10.0981  11.8466  11.8466

          k = 0.2250 0.2250 0.2250 (   778 PWs)   bands (ev):

    -5.9833  -5.9833   2.1697   2.1697   4.5503   4.5503   4.5883   4.5883
     8.3466   8.3466  10.0646  10.0646  10.0819  10.0822  11.4697  11.4697

          k = 0.2000 0.2000 0.2000 (   776 PWs)   bands (ev):

    -6.0910  -6.0910   2.5594   2.5594   4.6105   4.6105   4.6486   4.6486
     8.4382   8.4382  10.0203  10.0203  10.0383  10.0385  11.0846  11.0846

          k = 0.1750 0.1750 0.1750 (   773 PWs)   bands (ev):

    -6.1883  -6.1883   2.9532   2.9532   4.6708   4.6708   4.7090   4.7090
     8.5231   8.5231   9.9519   9.9519   9.9703   9.9705  10.7034  10.7034

          k = 0.1500 0.1500 0.1500 (   773 PWs)   bands (ev):

    -6.2742  -6.2742   3.3456   3.3456   4.7293   4.7293   4.7676   4.7676
     8.5915   8.5915   9.8669   9.8669   9.8854   9.8856  10.3406  10.3406

          k = 0.1250 0.1250 0.1250 (   770 PWs)   bands (ev):

    -6.3480  -6.3480   3.7294   3.7294   4.7842   4.7842   4.8226   4.8226
     8.6270   8.6270   9.7747   9.7747   9.7932   9.7934  10.0172  10.0172

          k = 0.1000 0.1000 0.1000 (   770 PWs)   bands (ev):

    -6.4090  -6.4090   4.0940   4.0940   4.8335   4.8335   4.8717   4.8718
     8.6055   8.6055   9.6845   9.6845   9.7035   9.7036   9.7639   9.7639

          k = 0.0750 0.0750 0.0750 (   749 PWs)   bands (ev):

    -6.4570  -6.4570   4.4238   4.4238   4.8752   4.8752   4.9129   4.9129
     8.5114   8.5114   9.5957   9.5957   9.6156   9.6156   9.6247   9.6248

          k = 0.0500 0.0500 0.0500 (   749 PWs)   bands (ev):

    -6.4914  -6.4914   4.6951   4.6951   4.9081   4.9081   4.9441   4.9441
     8.3716   8.3716   9.5255   9.5255   9.5521   9.5521   9.5635   9.5635

          k = 0.0250 0.0250 0.0250 (   749 PWs)   bands (ev):

    -6.5122  -6.5122   4.8700   4.8700   4.9380   4.9380   4.9635   4.9635
     8.2493   8.2493   9.4949   9.4949   9.5197   9.5197   9.5248   9.5248

          k = 0.0000 0.0000 0.0000 (   749 PWs)   bands (ev):

    -6.5191  -6.5191   4.9111   4.9111   4.9701   4.9701   4.9701   4.9701
     8.2011   8.2011   9.4848   9.4848   9.5116   9.5116   9.5116   9.5116

          k = 0.0333 0.0000 0.0000 (   749 PWs)   bands (ev):

    -6.5150  -6.5150   4.8941   4.8941   4.9495   4.9495   4.9600   4.9600
     8.2305   8.2305   9.4835   9.4835   9.5156   9.5156   9.5272   9.5272

          k = 0.0667 0.0000 0.0000 (   749 PWs)   bands (ev):

    -6.5027  -6.5027   4.8308   4.8308   4.9035   4.9035   4.9301   4.9301
     8.3156   8.3156   9.4495   9.4495   9.5577   9.5577   9.5733   9.5733

          k = 0.1000 0.0000 0.0000 (   749 PWs)   bands (ev):

    -6.4822  -6.4822   4.7130   4.7130   4.8492   4.8492   4.8817   4.8817
     8.4475   8.4475   9.3881   9.3881   9.6333   9.6333   9.6488   9.6488

          k = 0.1333 0.0000 0.0000 (   757 PWs)   bands (ev):

    -6.4536  -6.4536   4.5556   4.5556   4.7831   4.7831   4.8169   4.8169
     8.6149   8.6149   9.3050   9.3050   9.7369   9.7369   9.7514   9.7514

          k = 0.1667 0.0000 0.0000 (   753 PWs)   bands (ev):

    -6.4169  -6.4169   4.3708   4.3708   4.7047   4.7047   4.7383   4.7383
     8.8053   8.8053   9.2043   9.2043   9.8656   9.8656   9.8789   9.8789

          k = 0.2000 0.0000 0.0000 (   769 PWs)   bands (ev):

    -6.3722  -6.3722   4.1667   4.1667   4.6155   4.6155   4.6484   4.6484
     9.0035   9.0035   9.0920   9.0920  10.0165  10.0165  10.0283  10.0283

          k = 0.2333 0.0000 0.0000 (   769 PWs)   bands (ev):

    -6.3197  -6.3197   3.9492   3.9492   4.5180   4.5180   4.5499   4.5499
     8.9591   8.9591   9.2080   9.2080  10.1870  10.1870  10.1973  10.1973

          k = 0.2667 0.0000 0.0000 (   769 PWs)   bands (ev):

    -6.2595  -6.2595   3.7227   3.7227   4.4143   4.4143   4.4451   4.4451
     8.8246   8.8246   9.3861   9.3861  10.3746  10.3746  10.3833  10.3833

          k = 0.3000 0.0000 0.0000 (   769 PWs)   bands (ev):

    -6.1917  -6.1917   3.4903   3.4903   4.3065   4.3065   4.3361   4.3361
     8.6838   8.6838   9.5246   9.5246  10.5768  10.5768  10.5841  10.5841

          k = 0.3333 0.0000 0.0000 (   777 PWs)   bands (ev):

    -6.1167  -6.1167   3.2541   3.2541   4.1964   4.1964   4.2248   4.2248
     8.5392   8.5392   9.6002   9.6002  10.7919  10.7919  10.7977  10.7977

          k = 0.3667 0.0000 0.0000 (   785 PWs)   bands (ev):

    -6.0345  -6.0345   3.0159   3.0159   4.0856   4.0856   4.1129   4.1129
     8.3929   8.3929   9.5981   9.5981  11.0179  11.0179  11.0224  11.0224

          k = 0.4000 0.0000 0.0000 (   785 PWs)   bands (ev):

    -5.9456  -5.9456   2.7770   2.7770   3.9754   3.9754   4.0017   4.0017
     8.2465   8.2465   9.5209   9.5209  11.2534  11.2534  11.2568  11.2568

          k = 0.4333 0.0000 0.0000 (   769 PWs)   bands (ev):

    -5.8502  -5.8502   2.5384   2.5384   3.8670   3.8670   3.8923   3.8923
     8.1010   8.1010   9.3866   9.3866  11.4973  11.4973  11.5000  11.5000

          k = 0.4667 0.0000 0.0000 (   769 PWs)   bands (ev):

    -5.7488  -5.7488   2.3009   2.3009   3.7613   3.7613   3.7858   3.7858
     7.9575   7.9575   9.2171   9.2171  11.7480  11.7480  11.7506  11.7506

          k = 0.5000 0.0000 0.0000 (   769 PWs)   bands (ev):

    -5.6419  -5.6419   2.0653   2.0653   3.6593   3.6593   3.6830   3.6830
     7.8168   7.8168   9.0300   9.0300  12.0049  12.0049  12.0080  12.0080

          k = 0.5333 0.0000 0.0000 (   769 PWs)   bands (ev):

    -5.5300  -5.5300   1.8324   1.8324   3.5615   3.5615   3.5844   3.5844
     7.6796   7.6796   8.8376   8.8376  12.2674  12.2674  12.2712  12.2712

          k = 0.5667 0.0000 0.0000 (   773 PWs)   bands (ev):

    -5.4137  -5.4137   1.6031   1.6031   3.4686   3.4686   3.4908   3.4908
     7.5464   7.5464   8.6481   8.6481  12.5350  12.5350  12.5397  12.5397

          k = 0.6000 0.0000 0.0000 (   769 PWs)   bands (ev):

    -5.2940  -5.2940   1.3781   1.3781   3.3810   3.3810   3.4027   3.4027
     7.4178   7.4178   8.4669   8.4669  12.8073  12.8073  12.8129  12.8129

          k = 0.6333 0.0000 0.0000 (   769 PWs)   bands (ev):

    -5.1717  -5.1717   1.1587   1.1587   3.2992   3.2992   3.3203   3.3203
     7.2946   7.2946   8.2974   8.2974  13.0837  13.0837  13.0902  13.0902

          k = 0.6667 0.0000 0.0000 (   769 PWs)   bands (ev):

    -5.0481  -5.0481   0.9459   0.9459   3.2235   3.2235   3.2442   3.2442
     7.1774   7.1774   8.1418   8.1418  13.3640  13.3640  13.3713  13.3713

          k = 0.7000 0.0000 0.0000 (   769 PWs)   bands (ev):

    -4.9245  -4.9245   0.7414   0.7414   3.1543   3.1543   3.1745   3.1745
     7.0671   7.0671   8.0013   8.0013  13.6479  13.6479  13.6559  13.6559

          k = 0.7333 0.0000 0.0000 (   765 PWs)   bands (ev):

    -4.8027  -4.8027   0.5467   0.5467   3.0918   3.0918   3.1116   3.1116
     6.9646   6.9646   7.8766   7.8766  13.9349  13.9349  13.9436  13.9436

          k = 0.7667 0.0000 0.0000 (   765 PWs)   bands (ev):

    -4.6847  -4.6847   0.3642   0.3642   3.0362   3.0362   3.0557   3.0557
     6.8711   6.8711   7.7677   7.7677  14.2244  14.2244  14.2338  14.2338

          k = 0.8000 0.0000 0.0000 (   761 PWs)   bands (ev):

    -4.5728  -4.5728   0.1961   0.1961   2.9876   2.9876   3.0069   3.0069
     6.7875   6.7875   7.6745   7.6745  14.5159  14.5159  14.5258  14.5258

          k = 0.8333 0.0000 0.0000 (   761 PWs)   bands (ev):

    -4.4698  -4.4698   0.0455   0.0455   2.9463   2.9463   2.9653   2.9653
     6.7150   6.7150   7.5965   7.5965  14.8079  14.8079  14.8184  14.8184

          k = 0.8667 0.0000 0.0000 (   761 PWs)   bands (ev):

    -4.3789  -4.3789  -0.0846  -0.0846   2.9124   2.9124   2.9312   2.9312
     6.6543   6.6543   7.5335   7.5335  15.0982  15.0982  15.1092  15.1092

          k = 0.9000 0.0000 0.0000 (   769 PWs)   bands (ev):

    -4.3034  -4.3034  -0.1906  -0.1906   2.8859   2.8859   2.9046   2.9046
     6.6062   6.6062   7.4849   7.4849  15.3819  15.3819  15.3936  15.3936

          k = 0.9333 0.0000 0.0000 (   769 PWs)   bands (ev):

    -4.2465  -4.2465  -0.2694  -0.2694   2.8669   2.8669   2.8855   2.8855
     6.5715   6.5715   7.4505   7.4505  15.6479  15.6479  15.6601  15.6601

          k = 0.9667 0.0000 0.0000 (   769 PWs)   bands (ev):

    -4.2110  -4.2110  -0.3180  -0.3180   2.8555   2.8555   2.8740   2.8740
     6.5505   6.5505   7.4299   7.4299  15.8656  15.8656  15.8784  15.8784

          k = 1.0000 0.0000 0.0000 (   774 PWs)   bands (ev):

    -4.1990  -4.1990  -0.3344  -0.3344   2.8517   2.8517   2.8702   2.8702
     6.5434   6.5434   7.4231   7.4231  15.9598  15.9598  15.9729  15.9729

          k = 1.0000 0.0250 0.0250 (   766 PWs)   bands (ev):

    -4.1985  -4.1983  -0.3313  -0.3304   2.8283   2.8301   2.8668   2.8675
     6.5676   6.5683   7.4484   7.4498  15.8944  15.8957  15.9344  15.9361

          k = 1.0000 0.0500 0.0500 (   766 PWs)   bands (ev):

    -4.1970  -4.1966  -0.3210  -0.3192   2.7459   2.7485   2.8767   2.8771
     6.6335   6.6350   7.5286   7.5315  15.7111  15.7118  15.8371  15.8436

          k = 1.0000 0.0750 0.0750 (   768 PWs)   bands (ev):

    -4.1948  -4.1941  -0.3040  -0.3012   2.6189   2.6224   2.8955   2.8958
     6.7234   6.7255   7.6708   7.6749  15.4596  15.4600  15.6828  15.6961

          k = 1.0000 0.1000 0.1000 (   768 PWs)   bands (ev):

    -4.1924  -4.1915  -0.2806  -0.2768   2.4625   2.4669   2.9220   2.9222
     6.8200   6.8225   7.8789   7.8839  15.1742  15.1745  15.4680  15.4903

          k = 1.0000 0.1250 0.1250 (   768 PWs)   bands (ev):

    -4.1906  -4.1895  -0.2514  -0.2465   2.2904   2.2959   2.9559   2.9561
     6.9144   6.9169   8.1490   8.1546  14.8739  14.8741  15.1915  15.2124

          k = 1.0000 0.1500 0.1500 (   764 PWs)   bands (ev):

    -4.1904  -4.1890  -0.2174  -0.2114   2.1147   2.1211   2.9971   2.9973
     7.0058   7.0082   8.4706   8.4766  14.5687  14.5689  14.8834  14.8990

          k = 1.0000 0.1750 0.1750 (   764 PWs)   bands (ev):

    -4.1928  -4.1913  -0.1798  -0.1724   1.9450   1.9527   3.0453   3.0454
     7.0969   7.0991   8.8318   8.8381  14.2644  14.2646  14.5684  14.5807

          k = 1.0000 0.2000 0.2000 (   764 PWs)   bands (ev):

    -4.1994  -4.1977  -0.1398  -0.1311   1.7900   1.7989   3.1002   3.1003
     7.1905   7.1924   9.2218   9.2286  13.9645  13.9646  14.2553  14.2656

          k = 1.0000 0.2250 0.2250 (   756 PWs)   bands (ev):

    -4.2116  -4.2098  -0.0991  -0.0890   1.6566   1.6669   3.1616   3.1617
     7.2885   7.2901   9.6313   9.6385  13.6711  13.6713  13.9477  13.9569

          k = 1.0000 0.2500 0.2500 (   762 PWs)   bands (ev):

    -4.2308  -4.2290  -0.0591  -0.0476   1.5510   1.5626   3.2290   3.2291
     7.3923   7.3936  10.0506  10.0583  13.3859  13.3860  13.6470  13.6556

          k = 0.9667 0.2417 0.2417 (   754 PWs)   bands (ev):

    -4.2312  -4.2293  -0.0700  -0.0591   1.5976   1.6087   3.2093   3.2094
     7.3636   7.3651   9.9146   9.9222  13.4243  13.4245  13.6237  13.6295

          k = 0.9333 0.2333 0.2333 (   758 PWs)   bands (ev):

    -4.2486  -4.2468  -0.0719  -0.0618   1.6734   1.6838   3.1970   3.1971
     7.3491   7.3505   9.7882   9.7956  13.3744  13.3745  13.4702  13.4733

          k = 0.9000 0.2250 0.2250 (   762 PWs)   bands (ev):

    -4.2839  -4.2822  -0.0586  -0.0493   1.7724   1.7821   3.1924   3.1925
     7.3486   7.3502   9.6728   9.6801  13.2725  13.2726  13.2845  13.2864

          k = 0.8667 0.2167 0.2167 (   763 PWs)   bands (ev):

    -4.3369  -4.3354  -0.0258  -0.0172   1.8899   1.8989   3.1956   3.1957
     7.3623   7.3639   9.5696   9.5769  13.0820  13.0828  13.1539  13.1541

          k = 0.8333 0.2083 0.2083 (   761 PWs)   bands (ev):

    -4.4066  -4.4052   0.0291   0.0368   2.0216   2.0300   3.2067   3.2068
     7.3898   7.3915   9.4797   9.4869  12.8801  12.8805  13.0214  13.0215

          k = 0.8000 0.2000 0.2000 (   763 PWs)   bands (ev):

    -4.4913  -4.4901   0.1067   0.1137   2.1644   2.1723   3.2257   3.2258
     7.4308   7.4326   9.4040   9.4113  12.6776  12.6778  12.8852  12.8852

          k = 0.7667 0.1917 0.1917 (   766 PWs)   bands (ev):

    -4.5888  -4.5877   0.2069   0.2132   2.3156   2.3230   3.2526   3.2527
     7.4846   7.4865   9.3438   9.3510  12.4762  12.4763  12.7479  12.7480

          k = 0.7333 0.1833 0.1833 (   768 PWs)   bands (ev):

    -4.6966  -4.6957   0.3285   0.3343   2.4730   2.4800   3.2873   3.2875
     7.5504   7.5524   9.3000   9.3072  12.2768  12.2770  12.6109  12.6109

          k = 0.7000 0.1750 0.1750 (   770 PWs)   bands (ev):

    -4.8122  -4.8114   0.4700   0.4753   2.6346   2.6412   3.3298   3.3300
     7.6269   7.6290   9.2739   9.2811  12.0802  12.0806  12.4742  12.4742

          k = 0.6667 0.1667 0.1667 (   770 PWs)   bands (ev):

    -4.9332  -4.9326   0.6299   0.6347   2.7987   2.8050   3.3800   3.3802
     7.7125   7.7146   9.2667   9.2740  11.8874  11.8879  12.3373  12.3373

          k = 0.6333 0.1583 0.1583 (   764 PWs)   bands (ev):

    -5.0573  -5.0568   0.8064   0.8108   2.9638   2.9698   3.4377   3.4379
     7.8053   7.8074   9.2795   9.2868  11.6992  11.6998  12.1993  12.1993

          k = 0.6000 0.1500 0.1500 (   767 PWs)   bands (ev):

    -5.1827  -5.1823   0.9980   1.0020   3.1283   3.1341   3.5026   3.5029
     7.9031   7.9051   9.3127   9.3200  11.5170  11.5178  12.0589  12.0589

          k = 0.5667 0.1417 0.1417 (   769 PWs)   bands (ev):

    -5.3076  -5.3073   1.2032   1.2069   3.2909   3.2966   3.5744   3.5749
     8.0038   8.0057   9.3657   9.3728  11.3429  11.3439  11.9146  11.9146

          k = 0.5333 0.1333 0.1333 (   771 PWs)   bands (ev):

    -5.4306  -5.4303   1.4206   1.4241   3.4506   3.4561   3.6530   3.6536
     8.1056   8.1074   9.4354   9.4425  11.1801  11.1812  11.7651  11.7652

          k = 0.5000 0.1250 0.1250 (   764 PWs)   bands (ev):

    -5.5504  -5.5501   1.6490   1.6522   3.6059   3.6114   3.7379   3.7387
     8.2075   8.2090   9.5155   9.5224  11.0336  11.0350  11.6092  11.6092

          k = 0.4667 0.1167 0.1167 (   772 PWs)   bands (ev):

    -5.6659  -5.6657   1.8871   1.8902   3.7554   3.7612   3.8290   3.8303
     8.3089   8.3101   9.5940   9.6007  10.9112  10.9128  11.4459  11.4459

          k = 0.4333 0.1083 0.1083 (   774 PWs)   bands (ev):

    -5.7762  -5.7761   2.1339   2.1367   3.8948   3.9010   3.9292   3.9312
     8.4101   8.4111   9.6529   9.6592  10.8232  10.8248  11.2752  11.2752

          k = 0.4000 0.1000 0.1000 (   775 PWs)   bands (ev):

    -5.8807  -5.8806   2.3879   2.3906   4.0124   4.0156   4.0515   4.0523
     8.5116   8.5123   9.6723   9.6778  10.7757  10.7770  11.0977  11.0978

          k = 0.3667 0.0917 0.0917 (   773 PWs)   bands (ev):

    -5.9786  -5.9785   2.6480   2.6505   4.1183   4.1201   4.1793   4.1814
     8.6139   8.6143   9.6413   9.6459  10.7557  10.7565  10.9150  10.9151

          k = 0.3333 0.0833 0.0833 (   777 PWs)   bands (ev):

    -6.0695  -6.0694   2.9126   2.9149   4.2237   4.2248   4.3019   4.3043
     8.7166   8.7168   9.5653   9.5689  10.7209  10.7224  10.7297  10.7317

          k = 0.3000 0.0750 0.0750 (   777 PWs)   bands (ev):

    -6.1528  -6.1528   3.1799   3.1821   4.3289   4.3298   4.4167   4.4190
     8.8185   8.8186   9.4581   9.4607  10.5435  10.5437  10.6329  10.6334

          k = 0.2667 0.0667 0.0667 (   777 PWs)   bands (ev):

    -6.2283  -6.2282   3.4477   3.4497   4.4327   4.4335   4.5227   4.5248
     8.9152   8.9157   9.3334   9.3350  10.3616  10.3617  10.4781  10.4785

          k = 0.2333 0.0583 0.0583 (   771 PWs)   bands (ev):

    -6.2955  -6.2955   3.7131   3.7150   4.5333   4.5341   4.6191   4.6209
     8.9871   8.9886   9.2152   9.2154  10.1870  10.1871  10.2863  10.2867

          k = 0.2000 0.0500 0.0500 (   767 PWs)   bands (ev):

    -6.3542  -6.3542   3.9722   3.9740   4.6284   4.6292   4.7052   4.7068
     8.9443   8.9463   9.1936   9.1945  10.0237  10.0238  10.0901  10.0904

          k = 0.1667 0.0417 0.0417 (   763 PWs)   bands (ev):

    -6.4043  -6.4043   4.2197   4.2213   4.7155   4.7163   4.7806   4.7817
     8.7964   8.7977   9.2617   9.2623   9.8755   9.8756   9.9119   9.9121

          k = 0.1333 0.0333 0.0333 (   753 PWs)   bands (ev):

    -6.4454  -6.4454   4.4482   4.4496   4.7916   4.7925   4.8446   4.8454
     8.6276   8.6283   9.3383   9.3387   9.7456   9.7457   9.7648   9.7650

          k = 0.1000 0.0250 0.0250 (   750 PWs)   bands (ev):

    -6.4776  -6.4776   4.6473   4.6485   4.8542   4.8551   4.8968   4.8972
     8.4644   8.4648   9.4056   9.4059   9.6378   9.6380   9.6534   9.6535

          k = 0.0667 0.0167 0.0167 (   749 PWs)   bands (ev):

    -6.5006  -6.5006   4.8023   4.8031   4.9030   4.9037   4.9364   4.9365
     8.3269   8.3270   9.4569   9.4571   9.5592   9.5593   9.5748   9.5748

          k = 0.0333 0.0083 0.0083 (   749 PWs)   bands (ev):

    -6.5145  -6.5145   4.8902   4.8904   4.9459   4.9461   4.9615   4.9615
     8.2340   8.2340   9.4850   9.4851   9.5161   9.5162   9.5274   9.5274

          k = 0.0000 0.0000 0.0000 (   749 PWs)   bands (ev):

    -6.5191  -6.5191   4.9111   4.9111   4.9701   4.9701   4.9701   4.9701
     8.2011   8.2011   9.4848   9.4848   9.5116   9.5116   9.5116   9.5116

     Writing output data file ../tmp/alp.save/

     init_run     :      0.44s CPU      0.48s WALL (       1 calls)
     electrons    :     19.46s CPU     19.87s WALL (       1 calls)

     Called by init_run:
     wfcinit      :      0.00s CPU      0.00s WALL (       1 calls)
     potinit      :      0.12s CPU      0.13s WALL (       1 calls)
     hinit0       :      0.24s CPU      0.24s WALL (       1 calls)

     Called by electrons:
     c_bands      :     19.45s CPU     19.87s WALL (       1 calls)
     v_of_rho     :      0.01s CPU      0.01s WALL (       1 calls)
     newd         :      0.07s CPU      0.09s WALL (       1 calls)
     PAW_pot      :      0.10s CPU      0.11s WALL (       1 calls)

     Called by c_bands:
     init_us_2    :      0.01s CPU      0.01s WALL (      91 calls)
     cegterg      :     18.73s CPU     19.13s WALL (     265 calls)

     Called by *egterg:
     cdiaghg      :      1.81s CPU      1.85s WALL (    4531 calls)
     h_psi        :     10.06s CPU     10.28s WALL (    4796 calls)
     s_psi        :      2.00s CPU      2.05s WALL (    4796 calls)
     g_psi        :      0.10s CPU      0.10s WALL (    4440 calls)

     Called by h_psi:
     h_psi:calbec :      1.65s CPU      1.70s WALL (    4796 calls)
     vloc_psi     :      6.36s CPU      6.49s WALL (    4796 calls)
     add_vuspsi   :      2.01s CPU      2.06s WALL (    4796 calls)

     General routines
     calbec       :      1.65s CPU      1.69s WALL (    4796 calls)
     fft          :      0.01s CPU      0.01s WALL (      19 calls)
     ffts         :      0.00s CPU      0.00s WALL (       4 calls)
     fftw         :      5.26s CPU      5.37s WALL (  214096 calls)
     interpolate  :      0.00s CPU      0.00s WALL (       4 calls)
     davcio       :      0.01s CPU      0.01s WALL (     182 calls)

     Parallel routines
     fft_scatt_xy :      0.91s CPU      0.93s WALL (  214119 calls)
     fft_scatt_yz :      1.48s CPU      1.51s WALL (  214119 calls)

     PWSCF        :     22.59s CPU     23.20s WALL


   This run was terminated on:  15:13:58   1Apr2024            

=------------------------------------------------------------------------------=
   JOB DONE.
=------------------------------------------------------------------------------=
