
     Program PWSCF v.6.7MaX starts on 22Mar2024 at 17:43:42 

     This program is part of the open-source Quantum ESPRESSO suite
     for quantum simulation of materials; please cite
         "P. Giannozzi et al., J. Phys.:Condens. Matter 21 395502 (2009);
         "P. Giannozzi et al., J. Phys.:Condens. Matter 29 465901 (2017);
          URL http://www.quantum-espresso.org", 
     in publications or presentations arising from this work. More details at
     http://www.quantum-espresso.org/quote

     Parallel version (MPI), running on     4 processors

     MPI processes distributed on     1 nodes
     R & G space division:  proc/nbgrp/npool/nimage =       4
     Waiting for input...
     Reading input from standard input

     Current dimensions of program PWSCF are:
     Max number of different atomic species (ntypx) = 10
     Max number of k-points (npk) =  40000
     Max angular momentum in pseudopotentials (lmaxx) =  3

     Atomic positions and unit cell read from directory:
     ../tmp/alp.save/
     Atomic positions from file used, from input discarded

     file Al.rel-pbe-n-kjpaw_psl.1.0.0.UPF: wavefunction(s)  3S 3P 3P renormalized
     file P.rel-pbe-n-kjpaw_psl.1.0.0.UPF: wavefunction(s)  3S 3P 3P renormalized

     Subspace diagonalization in iterative solution of the eigenvalue problem:
     one sub-group per band group will be used
     scalapack distributed-memory algorithm (size of sub-group:  2*  2 procs)


     Parallelization info
     --------------------
     sticks:   dense  smooth     PW     G-vecs:    dense   smooth      PW
     Min         219     109     34                 4315     1545     266
     Max         220     110     35                 4316     1546     267
     Sum         877     439    139                17261     6183    1067



     bravais-lattice index     =            2
     lattice parameter (alat)  =      10.3400  a.u.
     unit-cell volume          =     276.3768 (a.u.)^3
     number of atoms/cell      =            2
     number of atomic types    =            2
     number of electrons       =         8.00
     number of Kohn-Sham states=           16
     kinetic-energy cutoff     =      30.0000  Ry
     charge density cutoff     =     240.0000  Ry
     Exchange-correlation= SLA  PW   PBX  PBC
                           (   1   4   3   4   0   0   0)
     Non magnetic calculation with spin-orbit


     celldm(1)=  10.340000  celldm(2)=   0.000000  celldm(3)=   0.000000
     celldm(4)=   0.000000  celldm(5)=   0.000000  celldm(6)=   0.000000

     crystal axes: (cart. coord. in units of alat)
               a(1) = (  -0.500000   0.000000   0.500000 )  
               a(2) = (   0.000000   0.500000   0.500000 )  
               a(3) = (  -0.500000   0.500000   0.000000 )  

     reciprocal axes: (cart. coord. in units 2 pi/alat)
               b(1) = ( -1.000000 -1.000000  1.000000 )  
               b(2) = (  1.000000  1.000000  1.000000 )  
               b(3) = ( -1.000000  1.000000 -1.000000 )  


     PseudoPot. # 1 for Al read from file:
     ../pseudo/Al.rel-pbe-n-kjpaw_psl.1.0.0.UPF
     MD5 check sum: dd46ca3b97fcdce4065e001a8b71f70f
     Pseudo is Projector augmented-wave + core cor, Zval =  3.0
     Generated using &quot;atomic&quot; code by A. Dal Corso  v.6.5
     Shape of augmentation charge: PSQ
     Using radial grid of 1135 points, 10 beta functions with: 
                l(1) =   0
                l(2) =   0
                l(3) =   1
                l(4) =   1
                l(5) =   1
                l(6) =   1
                l(7) =   2
                l(8) =   2
                l(9) =   2
               l(10) =   2
     Q(r) pseudized with 0 coefficients 


     PseudoPot. # 2 for P  read from file:
     ../pseudo/P.rel-pbe-n-kjpaw_psl.1.0.0.UPF
     MD5 check sum: b8b1f41b72eb33979940a8684e520c22
     Pseudo is Projector augmented-wave + core cor, Zval =  5.0
     Generated using &quot;atomic&quot; code by A. Dal Corso  v.6.5
     Shape of augmentation charge: PSQ
     Using radial grid of 1147 points, 10 beta functions with: 
                l(1) =   0
                l(2) =   0
                l(3) =   1
                l(4) =   1
                l(5) =   1
                l(6) =   1
                l(7) =   2
                l(8) =   2
                l(9) =   2
               l(10) =   2
     Q(r) pseudized with 0 coefficients 


     atomic species   valence    mass     pseudopotential
        Al             3.00    26.98154     Al( 1.00)
        P              5.00    30.97376     P ( 1.00)

     24 Sym. Ops. (no inversion) found



   Cartesian axes

     site n.     atom                  positions (alat units)
         1           Al  tau(   1) = (   0.0000000   0.0000000   0.0000000  )
         2           P   tau(   2) = (  -0.2500000   0.2500000   0.2500000  )

     number of k points=    91  Marzari-Vanderbilt smearing, width (Ry)=  0.0200
                       cart. coord. in units 2pi/alat
        k(    1) = (   0.5000000   0.5000000   0.5000000), wk =   0.0109890
        k(    2) = (   0.4750000   0.4750000   0.4750000), wk =   0.0109890
        k(    3) = (   0.4500000   0.4500000   0.4500000), wk =   0.0109890
        k(    4) = (   0.4250000   0.4250000   0.4250000), wk =   0.0109890
        k(    5) = (   0.4000000   0.4000000   0.4000000), wk =   0.0109890
        k(    6) = (   0.3750000   0.3750000   0.3750000), wk =   0.0109890
        k(    7) = (   0.3500000   0.3500000   0.3500000), wk =   0.0109890
        k(    8) = (   0.3250000   0.3250000   0.3250000), wk =   0.0109890
        k(    9) = (   0.3000000   0.3000000   0.3000000), wk =   0.0109890
        k(   10) = (   0.2750000   0.2750000   0.2750000), wk =   0.0109890
        k(   11) = (   0.2500000   0.2500000   0.2500000), wk =   0.0109890
        k(   12) = (   0.2250000   0.2250000   0.2250000), wk =   0.0109890
        k(   13) = (   0.2000000   0.2000000   0.2000000), wk =   0.0109890
        k(   14) = (   0.1750000   0.1750000   0.1750000), wk =   0.0109890
        k(   15) = (   0.1500000   0.1500000   0.1500000), wk =   0.0109890
        k(   16) = (   0.1250000   0.1250000   0.1250000), wk =   0.0109890
        k(   17) = (   0.1000000   0.1000000   0.1000000), wk =   0.0109890
        k(   18) = (   0.0750000   0.0750000   0.0750000), wk =   0.0109890
        k(   19) = (   0.0500000   0.0500000   0.0500000), wk =   0.0109890
        k(   20) = (   0.0250000   0.0250000   0.0250000), wk =   0.0109890
        k(   21) = (   0.0000000   0.0000000   0.0000000), wk =   0.0109890
        k(   22) = (   0.0333333   0.0000000   0.0000000), wk =   0.0109890
        k(   23) = (   0.0666667   0.0000000   0.0000000), wk =   0.0109890
        k(   24) = (   0.1000000   0.0000000   0.0000000), wk =   0.0109890
        k(   25) = (   0.1333333   0.0000000   0.0000000), wk =   0.0109890
        k(   26) = (   0.1666667   0.0000000   0.0000000), wk =   0.0109890
        k(   27) = (   0.2000000   0.0000000   0.0000000), wk =   0.0109890
        k(   28) = (   0.2333333   0.0000000   0.0000000), wk =   0.0109890
        k(   29) = (   0.2666667   0.0000000   0.0000000), wk =   0.0109890
        k(   30) = (   0.3000000   0.0000000   0.0000000), wk =   0.0109890
        k(   31) = (   0.3333333   0.0000000   0.0000000), wk =   0.0109890
        k(   32) = (   0.3666667   0.0000000   0.0000000), wk =   0.0109890
        k(   33) = (   0.4000000   0.0000000   0.0000000), wk =   0.0109890
        k(   34) = (   0.4333333   0.0000000   0.0000000), wk =   0.0109890
        k(   35) = (   0.4666667   0.0000000   0.0000000), wk =   0.0109890
        k(   36) = (   0.5000000   0.0000000   0.0000000), wk =   0.0109890
        k(   37) = (   0.5333333   0.0000000   0.0000000), wk =   0.0109890
        k(   38) = (   0.5666667   0.0000000   0.0000000), wk =   0.0109890
        k(   39) = (   0.6000000   0.0000000   0.0000000), wk =   0.0109890
        k(   40) = (   0.6333333   0.0000000   0.0000000), wk =   0.0109890
        k(   41) = (   0.6666667   0.0000000   0.0000000), wk =   0.0109890
        k(   42) = (   0.7000000   0.0000000   0.0000000), wk =   0.0109890
        k(   43) = (   0.7333333   0.0000000   0.0000000), wk =   0.0109890
        k(   44) = (   0.7666667   0.0000000   0.0000000), wk =   0.0109890
        k(   45) = (   0.8000000   0.0000000   0.0000000), wk =   0.0109890
        k(   46) = (   0.8333333   0.0000000   0.0000000), wk =   0.0109890
        k(   47) = (   0.8666667   0.0000000   0.0000000), wk =   0.0109890
        k(   48) = (   0.9000000   0.0000000   0.0000000), wk =   0.0109890
        k(   49) = (   0.9333333   0.0000000   0.0000000), wk =   0.0109890
        k(   50) = (   0.9666667   0.0000000   0.0000000), wk =   0.0109890
        k(   51) = (   1.0000000   0.0000000   0.0000000), wk =   0.0109890
        k(   52) = (   1.0000000   0.0250000   0.0250000), wk =   0.0109890
        k(   53) = (   1.0000000   0.0500000   0.0500000), wk =   0.0109890
        k(   54) = (   1.0000000   0.0750000   0.0750000), wk =   0.0109890
        k(   55) = (   1.0000000   0.1000000   0.1000000), wk =   0.0109890
        k(   56) = (   1.0000000   0.1250000   0.1250000), wk =   0.0109890
        k(   57) = (   1.0000000   0.1500000   0.1500000), wk =   0.0109890
        k(   58) = (   1.0000000   0.1750000   0.1750000), wk =   0.0109890
        k(   59) = (   1.0000000   0.2000000   0.2000000), wk =   0.0109890
        k(   60) = (   1.0000000   0.2250000   0.2250000), wk =   0.0109890
        k(   61) = (   1.0000000   0.2500000   0.2500000), wk =   0.0109890
        k(   62) = (   0.9666667   0.2416667   0.2416667), wk =   0.0109890
        k(   63) = (   0.9333333   0.2333333   0.2333333), wk =   0.0109890
        k(   64) = (   0.9000000   0.2250000   0.2250000), wk =   0.0109890
        k(   65) = (   0.8666667   0.2166667   0.2166667), wk =   0.0109890
        k(   66) = (   0.8333333   0.2083333   0.2083333), wk =   0.0109890
        k(   67) = (   0.8000000   0.2000000   0.2000000), wk =   0.0109890
        k(   68) = (   0.7666667   0.1916667   0.1916667), wk =   0.0109890
        k(   69) = (   0.7333333   0.1833333   0.1833333), wk =   0.0109890
        k(   70) = (   0.7000000   0.1750000   0.1750000), wk =   0.0109890
        k(   71) = (   0.6666667   0.1666667   0.1666667), wk =   0.0109890
        k(   72) = (   0.6333333   0.1583333   0.1583333), wk =   0.0109890
        k(   73) = (   0.6000000   0.1500000   0.1500000), wk =   0.0109890
        k(   74) = (   0.5666667   0.1416667   0.1416667), wk =   0.0109890
        k(   75) = (   0.5333333   0.1333333   0.1333333), wk =   0.0109890
        k(   76) = (   0.5000000   0.1250000   0.1250000), wk =   0.0109890
        k(   77) = (   0.4666667   0.1166667   0.1166667), wk =   0.0109890
        k(   78) = (   0.4333333   0.1083333   0.1083333), wk =   0.0109890
        k(   79) = (   0.4000000   0.1000000   0.1000000), wk =   0.0109890
        k(   80) = (   0.3666667   0.0916667   0.0916667), wk =   0.0109890
        k(   81) = (   0.3333333   0.0833333   0.0833333), wk =   0.0109890
        k(   82) = (   0.3000000   0.0750000   0.0750000), wk =   0.0109890
        k(   83) = (   0.2666667   0.0666667   0.0666667), wk =   0.0109890
        k(   84) = (   0.2333333   0.0583333   0.0583333), wk =   0.0109890
        k(   85) = (   0.2000000   0.0500000   0.0500000), wk =   0.0109890
        k(   86) = (   0.1666667   0.0416667   0.0416667), wk =   0.0109890
        k(   87) = (   0.1333333   0.0333333   0.0333333), wk =   0.0109890
        k(   88) = (   0.1000000   0.0250000   0.0250000), wk =   0.0109890
        k(   89) = (   0.0666667   0.0166667   0.0166667), wk =   0.0109890
        k(   90) = (   0.0333333   0.0083333   0.0083333), wk =   0.0109890
        k(   91) = (   0.0000000   0.0000000   0.0000000), wk =   0.0109890

     Dense  grid:    17261 G-vectors     FFT dimensions: (  40,  40,  40)

     Smooth grid:     6183 G-vectors     FFT dimensions: (  25,  25,  25)

     Estimated max dynamical RAM per process >      50.87 MB

     Estimated total dynamical RAM >     203.47 MB

     The potential is recalculated from file :
     ../tmp/alp.save/charge-density

     Starting wfcs are   16 randomized atomic wfcs
     Checking if some PAW data can be deallocated... 

     Band Structure Calculation
     Davidson diagonalization with overlap

     ethr =  1.25E-12,  avg # of iterations = 48.8

     total cpu time spent up to now is       22.4 secs

     End of band structure calculation

          k = 0.5000 0.5000 0.5000 (   778 PWs)   bands (ev):

    -4.8554  -4.8554  -0.5484  -0.5484   4.1724   4.1724   4.2100   4.2100
     7.7436   7.7436   9.7603   9.7603   9.7713   9.7713  13.2153  13.2153

          k = 0.4750 0.4750 0.4750 (   775 PWs)   bands (ev):

    -4.8727  -4.8727  -0.5174  -0.5174   4.1758   4.1758   4.2134   4.2134
     7.7491   7.7491   9.7665   9.7665   9.7775   9.7776  13.2149  13.2149

          k = 0.4500 0.4500 0.4500 (   769 PWs)   bands (ev):

    -4.9230  -4.9230  -0.4259  -0.4259   4.1862   4.1862   4.2238   4.2238
     7.7655   7.7655   9.7849   9.7849   9.7960   9.7961  13.2117  13.2117

          k = 0.4250 0.4250 0.4250 (   769 PWs)   bands (ev):

    -5.0019  -5.0019  -0.2786  -0.2786   4.2033   4.2033   4.2409   4.2409
     7.7928   7.7928   9.8145   9.8145   9.8259   9.8259  13.1999  13.1999

          k = 0.4000 0.4000 0.4000 (   769 PWs)   bands (ev):

    -5.1032  -5.1032  -0.0819  -0.0819   4.2272   4.2272   4.2648   4.2648
     7.8307   7.8307   9.8537   9.8537   9.8654   9.8655  13.1683  13.1683

          k = 0.3750 0.3750 0.3750 (   763 PWs)   bands (ev):

    -5.2205  -5.2205   0.1575   0.1575   4.2574   4.2574   4.2951   4.2951
     7.8791   7.8791   9.9002   9.9002   9.9124   9.9125  13.1003  13.1003

          k = 0.3500 0.3500 0.3500 (   769 PWs)   bands (ev):

    -5.3478  -5.3478   0.4329   0.4329   4.2939   4.2939   4.3315   4.3315
     7.9374   7.9374   9.9505   9.9505   9.9633   9.9635  12.9765  12.9765

          k = 0.3250 0.3250 0.3250 (   769 PWs)   bands (ev):

    -5.4798  -5.4798   0.7386   0.7386   4.3361   4.3361   4.3738   4.3738
     8.0052   8.0052  10.0001  10.0001  10.0137  10.0138  12.7829  12.7829

          k = 0.3000 0.3000 0.3000 (   769 PWs)   bands (ev):

    -5.6124  -5.6124   1.0694   1.0694   4.3836   4.3836   4.4214   4.4214
     8.0815   8.0815  10.0430  10.0430  10.0575  10.0577  12.5202  12.5202

          k = 0.2750 0.2750 0.2750 (   769 PWs)   bands (ev):

    -5.7421  -5.7421   1.4208   1.4208   4.4358   4.4358   4.4736   4.4736
     8.1651   8.1651  10.0725  10.0725  10.0880  10.0882  12.2022  12.2022

          k = 0.2500 0.2500 0.2500 (   778 PWs)   bands (ev):

    -5.8664  -5.8664   1.7890   1.7890   4.4917   4.4917   4.5296   4.5296
     8.2543   8.2543  10.0815  10.0815  10.0979  10.0981  11.8467  11.8467

          k = 0.2250 0.2250 0.2250 (   778 PWs)   bands (ev):

    -5.9832  -5.9832   2.1698   2.1698   4.5504   4.5504   4.5884   4.5884
     8.3466   8.3466  10.0646  10.0646  10.0820  10.0822  11.4698  11.4698

          k = 0.2000 0.2000 0.2000 (   776 PWs)   bands (ev):

    -6.0909  -6.0909   2.5594   2.5594   4.6106   4.6106   4.6487   4.6487
     8.4383   8.4383  10.0203  10.0203  10.0383  10.0385  11.0846  11.0846

          k = 0.1750 0.1750 0.1750 (   773 PWs)   bands (ev):

    -6.1882  -6.1882   2.9533   2.9533   4.6709   4.6709   4.7091   4.7091
     8.5231   8.5231   9.9520   9.9520   9.9703   9.9705  10.7034  10.7034

          k = 0.1500 0.1500 0.1500 (   773 PWs)   bands (ev):

    -6.2741  -6.2741   3.3457   3.3457   4.7294   4.7294   4.7677   4.7677
     8.5916   8.5916   9.8669   9.8669   9.8854   9.8856  10.3407  10.3407

          k = 0.1250 0.1250 0.1250 (   770 PWs)   bands (ev):

    -6.3479  -6.3479   3.7295   3.7295   4.7843   4.7843   4.8227   4.8227
     8.6271   8.6271   9.7747   9.7747   9.7933   9.7934  10.0173  10.0173

          k = 0.1000 0.1000 0.1000 (   770 PWs)   bands (ev):

    -6.4089  -6.4089   4.0941   4.0941   4.8336   4.8336   4.8719   4.8719
     8.6056   8.6056   9.6845   9.6845   9.7035   9.7036   9.7639   9.7639

          k = 0.0750 0.0750 0.0750 (   749 PWs)   bands (ev):

    -6.4569  -6.4569   4.4239   4.4239   4.8753   4.8753   4.9130   4.9131
     8.5115   8.5115   9.5958   9.5958   9.6156   9.6156   9.6247   9.6248

          k = 0.0500 0.0500 0.0500 (   749 PWs)   bands (ev):

    -6.4913  -6.4913   4.6952   4.6952   4.9082   4.9082   4.9442   4.9442
     8.3717   8.3717   9.5255   9.5255   9.5522   9.5522   9.5635   9.5636

          k = 0.0250 0.0250 0.0250 (   749 PWs)   bands (ev):

    -6.5121  -6.5121   4.8701   4.8701   4.9382   4.9382   4.9636   4.9636
     8.2493   8.2493   9.4950   9.4950   9.5197   9.5197   9.5248   9.5249

          k = 0.0000 0.0000 0.0000 (   749 PWs)   bands (ev):

    -6.5190  -6.5190   4.9112   4.9112   4.9703   4.9703   4.9703   4.9703
     8.2011   8.2011   9.4848   9.4848   9.5116   9.5116   9.5116   9.5116

          k = 0.0333 0.0000 0.0000 (   749 PWs)   bands (ev):

    -6.5149  -6.5149   4.8943   4.8943   4.9496   4.9496   4.9601   4.9601
     8.2306   8.2306   9.4835   9.4835   9.5156   9.5156   9.5272   9.5272

          k = 0.0667 0.0000 0.0000 (   749 PWs)   bands (ev):

    -6.5026  -6.5026   4.8309   4.8309   4.9036   4.9036   4.9302   4.9302
     8.3156   8.3156   9.4496   9.4496   9.5578   9.5578   9.5734   9.5734

          k = 0.1000 0.0000 0.0000 (   749 PWs)   bands (ev):

    -6.4821  -6.4821   4.7131   4.7131   4.8493   4.8493   4.8818   4.8818
     8.4476   8.4476   9.3881   9.3881   9.6334   9.6334   9.6489   9.6489

          k = 0.1333 0.0000 0.0000 (   757 PWs)   bands (ev):

    -6.4534  -6.4534   4.5557   4.5557   4.7832   4.7832   4.8171   4.8171
     8.6150   8.6150   9.3051   9.3051   9.7369   9.7369   9.7515   9.7515

          k = 0.1667 0.0000 0.0000 (   753 PWs)   bands (ev):

    -6.4168  -6.4168   4.3709   4.3709   4.7048   4.7048   4.7384   4.7384
     8.8054   8.8054   9.2043   9.2043   9.8656   9.8656   9.8789   9.8789

          k = 0.2000 0.0000 0.0000 (   769 PWs)   bands (ev):

    -6.3721  -6.3721   4.1668   4.1668   4.6157   4.6157   4.6486   4.6486
     9.0035   9.0035   9.0920   9.0920  10.0165  10.0165  10.0283  10.0283

          k = 0.2333 0.0000 0.0000 (   769 PWs)   bands (ev):

    -6.3196  -6.3196   3.9493   3.9493   4.5181   4.5181   4.5500   4.5500
     8.9592   8.9592   9.2080   9.2080  10.1870  10.1870  10.1973  10.1973

          k = 0.2667 0.0000 0.0000 (   769 PWs)   bands (ev):

    -6.2594  -6.2594   3.7228   3.7228   4.4144   4.4144   4.4452   4.4452
     8.8247   8.8247   9.3862   9.3862  10.3746  10.3746  10.3834  10.3834

          k = 0.3000 0.0000 0.0000 (   769 PWs)   bands (ev):

    -6.1916  -6.1916   3.4904   3.4904   4.3066   4.3066   4.3362   4.3362
     8.6838   8.6838   9.5246   9.5246  10.5769  10.5769  10.5841  10.5841

          k = 0.3333 0.0000 0.0000 (   777 PWs)   bands (ev):

    -6.1166  -6.1166   3.2542   3.2542   4.1965   4.1965   4.2249   4.2249
     8.5393   8.5393   9.6003   9.6003  10.7919  10.7919  10.7977  10.7977

          k = 0.3667 0.0000 0.0000 (   785 PWs)   bands (ev):

    -6.0344  -6.0344   3.0160   3.0160   4.0857   4.0857   4.1130   4.1130
     8.3930   8.3930   9.5982   9.5982  11.0179  11.0179  11.0224  11.0224

          k = 0.4000 0.0000 0.0000 (   785 PWs)   bands (ev):

    -5.9455  -5.9455   2.7771   2.7771   3.9755   3.9755   4.0018   4.0018
     8.2465   8.2465   9.5210   9.5210  11.2535  11.2535  11.2569  11.2569

          k = 0.4333 0.0000 0.0000 (   769 PWs)   bands (ev):

    -5.8501  -5.8501   2.5385   2.5385   3.8671   3.8671   3.8924   3.8924
     8.1010   8.1010   9.3867   9.3867  11.4974  11.4974  11.5000  11.5000

          k = 0.4667 0.0000 0.0000 (   769 PWs)   bands (ev):

    -5.7487  -5.7487   2.3010   2.3010   3.7614   3.7614   3.7859   3.7859
     7.9575   7.9575   9.2171   9.2171  11.7481  11.7481  11.7506  11.7506

          k = 0.5000 0.0000 0.0000 (   769 PWs)   bands (ev):

    -5.6418  -5.6418   2.0654   2.0654   3.6594   3.6594   3.6830   3.6830
     7.8168   7.8168   9.0300   9.0300  12.0050  12.0050  12.0080  12.0080

          k = 0.5333 0.0000 0.0000 (   769 PWs)   bands (ev):

    -5.5298  -5.5298   1.8325   1.8325   3.5616   3.5616   3.5845   3.5845
     7.6796   7.6796   8.8377   8.8377  12.2675  12.2675  12.2713  12.2713

          k = 0.5667 0.0000 0.0000 (   773 PWs)   bands (ev):

    -5.4136  -5.4136   1.6032   1.6032   3.4686   3.4686   3.4909   3.4909
     7.5464   7.5464   8.6482   8.6482  12.5350  12.5350  12.5397  12.5397

          k = 0.6000 0.0000 0.0000 (   769 PWs)   bands (ev):

    -5.2939  -5.2939   1.3782   1.3782   3.3811   3.3811   3.4027   3.4027
     7.4179   7.4179   8.4670   8.4670  12.8073  12.8073  12.8129  12.8129

          k = 0.6333 0.0000 0.0000 (   769 PWs)   bands (ev):

    -5.1716  -5.1716   1.1588   1.1588   3.2993   3.2993   3.3204   3.3204
     7.2946   7.2946   8.2975   8.2975  13.0838  13.0838  13.0902  13.0902

          k = 0.6667 0.0000 0.0000 (   769 PWs)   bands (ev):

    -5.0480  -5.0480   0.9460   0.9460   3.2236   3.2236   3.2443   3.2443
     7.1774   7.1774   8.1419   8.1419  13.3641  13.3641  13.3713  13.3713

          k = 0.7000 0.0000 0.0000 (   769 PWs)   bands (ev):

    -4.9244  -4.9244   0.7415   0.7415   3.1544   3.1544   3.1746   3.1746
     7.0671   7.0671   8.0014   8.0014  13.6479  13.6479  13.6559  13.6559

          k = 0.7333 0.0000 0.0000 (   765 PWs)   bands (ev):

    -4.8026  -4.8026   0.5468   0.5468   3.0919   3.0919   3.1117   3.1117
     6.9647   6.9647   7.8766   7.8766  13.9349  13.9349  13.9436  13.9436

          k = 0.7667 0.0000 0.0000 (   765 PWs)   bands (ev):

    -4.6845  -4.6845   0.3643   0.3643   3.0363   3.0363   3.0558   3.0558
     6.8711   6.8711   7.7677   7.7677  14.2245  14.2245  14.2338  14.2338

          k = 0.8000 0.0000 0.0000 (   761 PWs)   bands (ev):

    -4.5726  -4.5726   0.1962   0.1962   2.9877   2.9877   3.0070   3.0070
     6.7876   6.7876   7.6745   7.6745  14.5159  14.5159  14.5259  14.5259

          k = 0.8333 0.0000 0.0000 (   761 PWs)   bands (ev):

    -4.4697  -4.4697   0.0456   0.0456   2.9464   2.9464   2.9654   2.9654
     6.7150   6.7150   7.5966   7.5966  14.8079  14.8079  14.8185  14.8185

          k = 0.8667 0.0000 0.0000 (   761 PWs)   bands (ev):

    -4.3788  -4.3788  -0.0845  -0.0845   2.9125   2.9125   2.9313   2.9313
     6.6543   6.6543   7.5336   7.5336  15.0982  15.0982  15.1093  15.1093

          k = 0.9000 0.0000 0.0000 (   769 PWs)   bands (ev):

    -4.3032  -4.3032  -0.1906  -0.1906   2.8860   2.8860   2.9046   2.9046
     6.6062   6.6062   7.4850   7.4850  15.3820  15.3820  15.3936  15.3936

          k = 0.9333 0.0000 0.0000 (   769 PWs)   bands (ev):

    -4.2463  -4.2463  -0.2693  -0.2693   2.8670   2.8670   2.8856   2.8856
     6.5715   6.5715   7.4505   7.4505  15.6479  15.6479  15.6602  15.6602

          k = 0.9667 0.0000 0.0000 (   769 PWs)   bands (ev):

    -4.2109  -4.2109  -0.3179  -0.3179   2.8556   2.8556   2.8741   2.8741
     6.5505   6.5505   7.4300   7.4300  15.8656  15.8656  15.8784  15.8784

          k = 1.0000 0.0000 0.0000 (   774 PWs)   bands (ev):

    -4.1989  -4.1989  -0.3343  -0.3343   2.8518   2.8518   2.8703   2.8703
     6.5434   6.5434   7.4231   7.4231  15.9598  15.9598  15.9730  15.9730

          k = 1.0000 0.0250 0.0250 (   766 PWs)   bands (ev):

    -4.1984  -4.1982  -0.3312  -0.3303   2.8284   2.8302   2.8669   2.8676
     6.5676   6.5684   7.4484   7.4499  15.8944  15.8957  15.9344  15.9361

          k = 1.0000 0.0500 0.0500 (   766 PWs)   bands (ev):

    -4.1969  -4.1964  -0.3210  -0.3191   2.7460   2.7486   2.8768   2.8772
     6.6335   6.6350   7.5287   7.5316  15.7112  15.7118  15.8372  15.8436

          k = 1.0000 0.0750 0.0750 (   768 PWs)   bands (ev):

    -4.1947  -4.1940  -0.3039  -0.3011   2.6190   2.6224   2.8956   2.8959
     6.7234   6.7255   7.6709   7.6750  15.4596  15.4600  15.6829  15.6962

          k = 1.0000 0.1000 0.1000 (   768 PWs)   bands (ev):

    -4.1923  -4.1914  -0.2805  -0.2767   2.4626   2.4670   2.9221   2.9223
     6.8200   6.8225   7.8790   7.8840  15.1742  15.1745  15.4681  15.4903

          k = 1.0000 0.1250 0.1250 (   768 PWs)   bands (ev):

    -4.1905  -4.1893  -0.2513  -0.2464   2.2905   2.2959   2.9560   2.9562
     6.9144   6.9170   8.1490   8.1547  14.8739  14.8741  15.1915  15.2125

          k = 1.0000 0.1500 0.1500 (   764 PWs)   bands (ev):

    -4.1902  -4.1889  -0.2173  -0.2113   2.1147   2.1212   2.9972   2.9974
     7.0059   7.0083   8.4707   8.4767  14.5687  14.5689  14.8835  14.8991

          k = 1.0000 0.1750 0.1750 (   764 PWs)   bands (ev):

    -4.1927  -4.1912  -0.1797  -0.1723   1.9451   1.9528   3.0454   3.0455
     7.0970   7.0991   8.8318   8.8382  14.2645  14.2646  14.5685  14.5807

          k = 1.0000 0.2000 0.2000 (   764 PWs)   bands (ev):

    -4.1993  -4.1976  -0.1397  -0.1310   1.7900   1.7990   3.1003   3.1004
     7.1905   7.1924   9.2219   9.2286  13.9645  13.9647  14.2554  14.2657

          k = 1.0000 0.2250 0.2250 (   756 PWs)   bands (ev):

    -4.2114  -4.2097  -0.0990  -0.0889   1.6567   1.6670   3.1617   3.1618
     7.2886   7.2902   9.6314   9.6386  13.6712  13.6713  13.9478  13.9569

          k = 1.0000 0.2500 0.2500 (   762 PWs)   bands (ev):

    -4.2307  -4.2288  -0.0590  -0.0475   1.5510   1.5627   3.2291   3.2292
     7.3923   7.3936  10.0507  10.0584  13.3859  13.3861  13.6470  13.6557

          k = 0.9667 0.2417 0.2417 (   754 PWs)   bands (ev):

    -4.2310  -4.2292  -0.0699  -0.0590   1.5977   1.6088   3.2094   3.2095
     7.3637   7.3651   9.9147   9.9222  13.4243  13.4245  13.6237  13.6295

          k = 0.9333 0.2333 0.2333 (   758 PWs)   bands (ev):

    -4.2485  -4.2467  -0.0718  -0.0617   1.6734   1.6839   3.1971   3.1972
     7.3491   7.3506   9.7883   9.7957  13.3744  13.3745  13.4703  13.4733

          k = 0.9000 0.2250 0.2250 (   762 PWs)   bands (ev):

    -4.2837  -4.2821  -0.0585  -0.0492   1.7725   1.7822   3.1925   3.1926
     7.3487   7.3502   9.6729   9.6802  13.2725  13.2726  13.2845  13.2864

          k = 0.8667 0.2167 0.2167 (   763 PWs)   bands (ev):

    -4.3367  -4.3352  -0.0257  -0.0171   1.8899   1.8989   3.1957   3.1958
     7.3623   7.3640   9.5697   9.5769  13.0821  13.0829  13.1539  13.1541

          k = 0.8333 0.2083 0.2083 (   761 PWs)   bands (ev):

    -4.4064  -4.4051   0.0292   0.0369   2.0217   2.0301   3.2068   3.2069
     7.3898   7.3916   9.4798   9.4870  12.8801  12.8805  13.0215  13.0216

          k = 0.8000 0.2000 0.2000 (   763 PWs)   bands (ev):

    -4.4911  -4.4900   0.1068   0.1138   2.1645   2.1723   3.2258   3.2259
     7.4308   7.4327   9.4041   9.4113  12.6777  12.6778  12.8852  12.8853

          k = 0.7667 0.1917 0.1917 (   766 PWs)   bands (ev):

    -4.5886  -4.5876   0.2070   0.2133   2.3157   2.3231   3.2526   3.2528
     7.4846   7.4866   9.3438   9.3510  12.4763  12.4763  12.7480  12.7480

          k = 0.7333 0.1833 0.1833 (   768 PWs)   bands (ev):

    -4.6965  -4.6956   0.3286   0.3344   2.4731   2.4801   3.2874   3.2876
     7.5504   7.5524   9.3000   9.3073  12.2768  12.2771  12.6109  12.6110

          k = 0.7000 0.1750 0.1750 (   770 PWs)   bands (ev):

    -4.8121  -4.8113   0.4701   0.4754   2.6347   2.6413   3.3299   3.3301
     7.6269   7.6290   9.2739   9.2812  12.0803  12.0807  12.4742  12.4743

          k = 0.6667 0.1667 0.1667 (   770 PWs)   bands (ev):

    -4.9331  -4.9324   0.6300   0.6348   2.7988   2.8051   3.3801   3.3803
     7.7125   7.7146   9.2668   9.2740  11.8874  11.8879  12.3373  12.3373

          k = 0.6333 0.1583 0.1583 (   764 PWs)   bands (ev):

    -5.0572  -5.0567   0.8065   0.8109   2.9638   2.9698   3.4377   3.4380
     7.8053   7.8074   9.2796   9.2868  11.6992  11.6999  12.1994  12.1994

          k = 0.6000 0.1500 0.1500 (   767 PWs)   bands (ev):

    -5.1826  -5.1822   0.9981   1.0021   3.1283   3.1341   3.5026   3.5030
     7.9031   7.9052   9.3128   9.3200  11.5170  11.5178  12.0589  12.0589

          k = 0.5667 0.1417 0.1417 (   769 PWs)   bands (ev):

    -5.3075  -5.3072   1.2033   1.2070   3.2910   3.2967   3.5745   3.5749
     8.0038   8.0057   9.3657   9.3729  11.3429  11.3439  11.9147  11.9147

          k = 0.5333 0.1333 0.1333 (   771 PWs)   bands (ev):

    -5.4305  -5.4302   1.4207   1.4242   3.4506   3.4562   3.6531   3.6536
     8.1056   8.1074   9.4355   9.4426  11.1801  11.1813  11.7652  11.7652

          k = 0.5000 0.1250 0.1250 (   764 PWs)   bands (ev):

    -5.5502  -5.5500   1.6491   1.6523   3.6060   3.6115   3.7380   3.7388
     8.2075   8.2090   9.5156   9.5225  11.0337  11.0350  11.6092  11.6093

          k = 0.4667 0.1167 0.1167 (   772 PWs)   bands (ev):

    -5.6657  -5.6656   1.8872   1.8903   3.7555   3.7613   3.8291   3.8304
     8.3089   8.3102   9.5941   9.6007  10.9113  10.9128  11.4459  11.4460

          k = 0.4333 0.1083 0.1083 (   774 PWs)   bands (ev):

    -5.7761  -5.7760   2.1340   2.1368   3.8948   3.9011   3.9293   3.9313
     8.4101   8.4111   9.6530   9.6593  10.8233  10.8248  11.2752  11.2753

          k = 0.4000 0.1000 0.1000 (   775 PWs)   bands (ev):

    -5.8806  -5.8805   2.3880   2.3907   4.0124   4.0157   4.0516   4.0524
     8.5117   8.5124   9.6724   9.6779  10.7758  10.7770  11.0977  11.0978

          k = 0.3667 0.0917 0.0917 (   773 PWs)   bands (ev):

    -5.9785  -5.9784   2.6481   2.6506   4.1184   4.1201   4.1794   4.1815
     8.6139   8.6143   9.6414   9.6460  10.7558  10.7566  10.9150  10.9151

          k = 0.3333 0.0833 0.0833 (   777 PWs)   bands (ev):

    -6.0694  -6.0693   2.9127   2.9150   4.2238   4.2249   4.3020   4.3044
     8.7166   8.7168   9.5654   9.5690  10.7210  10.7224  10.7297  10.7318

          k = 0.3000 0.0750 0.0750 (   777 PWs)   bands (ev):

    -6.1527  -6.1527   3.1800   3.1822   4.3290   4.3299   4.4168   4.4191
     8.8185   8.8186   9.4582   9.4608  10.5435  10.5437  10.6329  10.6335

          k = 0.2667 0.0667 0.0667 (   777 PWs)   bands (ev):

    -6.2281  -6.2281   3.4478   3.4498   4.4328   4.4336   4.5228   4.5249
     8.9153   8.9158   9.3334   9.3351  10.3616  10.3617  10.4781  10.4786

          k = 0.2333 0.0583 0.0583 (   771 PWs)   bands (ev):

    -6.2954  -6.2953   3.7132   3.7151   4.5334   4.5342   4.6192   4.6210
     8.9872   8.9887   9.2153   9.2154  10.1871  10.1871  10.2864  10.2868

          k = 0.2000 0.0500 0.0500 (   767 PWs)   bands (ev):

    -6.3541  -6.3541   3.9723   3.9741   4.6286   4.6294   4.7054   4.7069
     8.9443   8.9464   9.1936   9.1945  10.0238  10.0238  10.0901  10.0904

          k = 0.1667 0.0417 0.0417 (   763 PWs)   bands (ev):

    -6.4042  -6.4041   4.2198   4.2214   4.7156   4.7164   4.7807   4.7819
     8.7965   8.7978   9.2617   9.2623   9.8755   9.8756   9.9119   9.9121

          k = 0.1333 0.0333 0.0333 (   753 PWs)   bands (ev):

    -6.4453  -6.4453   4.4483   4.4497   4.7917   4.7926   4.8447   4.8455
     8.6276   8.6283   9.3383   9.3387   9.7456   9.7458   9.7649   9.7650

          k = 0.1000 0.0250 0.0250 (   750 PWs)   bands (ev):

    -6.4775  -6.4775   4.6474   4.6486   4.8543   4.8552   4.8969   4.8973
     8.4645   8.4648   9.4056   9.4059   9.6378   9.6380   9.6534   9.6535

          k = 0.0667 0.0167 0.0167 (   749 PWs)   bands (ev):

    -6.5005  -6.5005   4.8024   4.8032   4.9031   4.9038   4.9365   4.9366
     8.3269   8.3270   9.4570   9.4571   9.5592   9.5593   9.5748   9.5748

          k = 0.0333 0.0083 0.0083 (   749 PWs)   bands (ev):

    -6.5144  -6.5144   4.8903   4.8905   4.9460   4.9462   4.9616   4.9616
     8.2341   8.2341   9.4851   9.4851   9.5161   9.5162   9.5274   9.5275

          k = 0.0000 0.0000 0.0000 (   749 PWs)   bands (ev):

    -6.5190  -6.5190   4.9112   4.9112   4.9703   4.9703   4.9703   4.9703
     8.2011   8.2011   9.4848   9.4848   9.5116   9.5116   9.5116   9.5116

     Writing output data file ../tmp/alp.save/

     init_run     :      0.41s CPU      0.46s WALL (       1 calls)
     electrons    :     19.27s CPU     19.71s WALL (       1 calls)

     Called by init_run:
     wfcinit      :      0.00s CPU      0.00s WALL (       1 calls)
     potinit      :      0.12s CPU      0.13s WALL (       1 calls)
     hinit0       :      0.22s CPU      0.23s WALL (       1 calls)

     Called by electrons:
     c_bands      :     19.27s CPU     19.71s WALL (       1 calls)
     v_of_rho     :      0.01s CPU      0.01s WALL (       1 calls)
     newd         :      0.06s CPU      0.08s WALL (       1 calls)
     PAW_pot      :      0.11s CPU      0.12s WALL (       1 calls)

     Called by c_bands:
     init_us_2    :      0.01s CPU      0.01s WALL (      91 calls)
     cegterg      :     18.71s CPU     19.09s WALL (     264 calls)

     Called by *egterg:
     cdiaghg      :      1.84s CPU      1.87s WALL (    4528 calls)
     h_psi        :     10.00s CPU     10.23s WALL (    4792 calls)
     s_psi        :      2.00s CPU      2.04s WALL (    4792 calls)
     g_psi        :      0.10s CPU      0.10s WALL (    4437 calls)

     Called by h_psi:
     h_psi:calbec :      1.67s CPU      1.71s WALL (    4792 calls)
     vloc_psi     :      6.31s CPU      6.45s WALL (    4792 calls)
     add_vuspsi   :      1.99s CPU      2.03s WALL (    4792 calls)

     General routines
     calbec       :      1.66s CPU      1.71s WALL (    4792 calls)
     fft          :      0.01s CPU      0.01s WALL (      19 calls)
     ffts         :      0.00s CPU      0.00s WALL (       4 calls)
     fftw         :      5.23s CPU      5.35s WALL (  213964 calls)
     interpolate  :      0.00s CPU      0.00s WALL (       4 calls)
     davcio       :      0.02s CPU      0.05s WALL (     182 calls)

     Parallel routines
     fft_scatt_xy :      0.88s CPU      0.90s WALL (  213987 calls)
     fft_scatt_yz :      1.51s CPU      1.55s WALL (  213987 calls)

     PWSCF        :     21.90s CPU     22.48s WALL


   This run was terminated on:  17:44: 4  22Mar2024            

=------------------------------------------------------------------------------=
   JOB DONE.
=------------------------------------------------------------------------------=
