
     Program BANDS v.6.7MaX starts on 22Mar2024 at 17:46:17 

     This program is part of the open-source Quantum ESPRESSO suite
     for quantum simulation of materials; please cite
         "P. Giannozzi et al., J. Phys.:Condens. Matter 21 395502 (2009);
         "P. Giannozzi et al., J. Phys.:Condens. Matter 29 465901 (2017);
          URL http://www.quantum-espresso.org", 
     in publications or presentations arising from this work. More details at
     http://www.quantum-espresso.org/quote

     Parallel version (MPI), running on     4 processors

     MPI processes distributed on     1 nodes
     R & G space division:  proc/nbgrp/npool/nimage =       4

     Reading xml data from directory:

     ../tmp/alp.save/
     file Al.rel-pbe-n-kjpaw_psl.1.0.0.UPF: wavefunction(s)  3S 3P 3P renormalized
     file P.rel-pbe-n-kjpaw_psl.1.0.0.UPF: wavefunction(s)  3S 3P 3P renormalized

     IMPORTANT: XC functional enforced from input :
     Exchange-correlation= PBE
                           (   1   4   3   4   0   0   0)
     Any further DFT definition will be discarded
     Please, verify this is what you really want


     Parallelization info
     --------------------
     sticks:   dense  smooth     PW     G-vecs:    dense   smooth      PW
     Min         219     109     34                 4315     1545     266
     Max         220     110     35                 4316     1546     267
     Sum         877     439    139                17261     6183    1067

     Reading collected, re-writing distributed wavefunctions
     high-symmetry point:  0.5000 0.5000 0.5000   x coordinate   0.0000
     high-symmetry point:  0.0000 0.0000 0.0000   x coordinate   0.8660
     high-symmetry point:  1.0000 0.0000 0.0000   x coordinate   1.8660
     high-symmetry point:  1.0000 0.2500 0.2500   x coordinate   2.2196
     high-symmetry point:  0.0000 0.0000 0.0000   x coordinate   3.2802

     Plottable bands (eV) written to file alp.bands.gnu
     Bands written to file alp.bands

 **************************************************************************

                    xk=(   0.50000,   0.50000,   0.50000  )

     double point group C_3v (3m)  
     there are  6 classes and  3 irreducible representations
     the character table:

       E     -E    2C3   -2C3  3s_v  -3s_v
                                          
G_4    2.00 -2.00  1.00 -1.00  0.00  0.00
G_5    1.00 -1.00 -1.00  1.00  0.00  0.00
G_6    1.00 -1.00 -1.00  1.00  0.00  0.00

     imaginary part

       E     -E    2C3   -2C3  3s_v  -3s_v
                                          
G_4    0.00  0.00  0.00  0.00  0.00  0.00
G_5    0.00  0.00  0.00  0.00  1.00 -1.00
G_6    0.00  0.00  0.00  0.00 -1.00  1.00

     the symmetry operations in each class and the name of the first element:

     E             1
                                                                 
     -E           -1
                                                                 
     2C3           2    3
                                                                 
     -2C3         -2   -3
                                                                 
     3s_v          4    5   -6
                                                                 
     3s_v          6   -4   -5
                                                                 

     Band symmetry, C_3v (3m)   double point group:

     e(  1 -  2) =     -4.85539  eV     2   --> G_4   L_6      
     e(  3 -  4) =     -0.54841  eV     2   --> G_4   L_6      
     e(  5 -  6) =      4.17237  eV     2   --> G_4   L_6      
     e(  7 -  8) =      4.20995  eV     2   --> G_5   L_4      
     e(  7 -  8) =      4.20995  eV     2   --> G_6   L_5      
     e(  9 - 10) =      7.74360  eV     2   --> G_4   L_6      
     e( 11 - 12) =      9.76030  eV     2   --> G_4   L_6      
     e( 13 - 14) =      9.77128  eV     2   --> G_5   L_4      
     e( 13 - 14) =      9.77128  eV     2   --> G_6   L_5      
     e( 15 - 16) =     13.21526  eV     2   --> G_4   L_6      

 **************************************************************************

 **************************************************************************

                    xk=(   0.47500,   0.47500,   0.47500  )

     Band symmetry, C_3v (3m)   double point group:

     e(  1 -  2) =     -4.87271  eV     2   --> G_4   L_6      
     e(  3 -  4) =     -0.51736  eV     2   --> G_4   L_6      
     e(  5 -  6) =      4.17583  eV     2   --> G_4   L_6      
     e(  7 -  8) =      4.21341  eV     2   --> G_5   L_4      
     e(  7 -  8) =      4.21341  eV     2   --> G_6   L_5      
     e(  9 - 10) =      7.74911  eV     2   --> G_4   L_6      
     e( 11 - 12) =      9.76652  eV     2   --> G_4   L_6      
     e( 13 - 14) =      9.77753  eV     2   --> G_5   L_4      
     e( 13 - 14) =      9.77753  eV     2   --> G_6   L_5      
     e( 15 - 16) =     13.21486  eV     2   --> G_4   L_6      

 **************************************************************************

 **************************************************************************

                    xk=(   0.45000,   0.45000,   0.45000  )

     Band symmetry, C_3v (3m)   double point group:

     e(  1 -  2) =     -4.92303  eV     2   --> G_4   L_6      
     e(  3 -  4) =     -0.42589  eV     2   --> G_4   L_6      
     e(  5 -  6) =      4.18618  eV     2   --> G_4   L_6      
     e(  7 -  8) =      4.22376  eV     2   --> G_5   L_4      
     e(  7 -  8) =      4.22376  eV     2   --> G_6   L_5      
     e(  9 - 10) =      7.76549  eV     2   --> G_4   L_6      
     e( 11 - 12) =      9.78488  eV     2   --> G_4   L_6      
     e( 13 - 14) =      9.79604  eV     2   --> G_5   L_4      
     e( 13 - 14) =      9.79604  eV     2   --> G_6   L_5      
     e( 15 - 16) =     13.21175  eV     2   --> G_4   L_6      

 **************************************************************************

 **************************************************************************

                    xk=(   0.42500,   0.42500,   0.42500  )

     Band symmetry, C_3v (3m)   double point group:

     e(  1 -  2) =     -5.00189  eV     2   --> G_4   L_6      
     e(  3 -  4) =     -0.27861  eV     2   --> G_4   L_6      
     e(  5 -  6) =      4.20333  eV     2   --> G_4   L_6      
     e(  7 -  8) =      4.24092  eV     2   --> G_5   L_4      
     e(  7 -  8) =      4.24092  eV     2   --> G_6   L_5      
     e(  9 - 10) =      7.79278  eV     2   --> G_4   L_6      
     e( 11 - 12) =      9.81446  eV     2   --> G_4   L_6      
     e( 13 - 14) =      9.82586  eV     2   --> G_5   L_4      
     e( 13 - 14) =      9.82586  eV     2   --> G_6   L_5      
     e( 15 - 16) =     13.19994  eV     2   --> G_4   L_6      

 **************************************************************************

 **************************************************************************

                    xk=(   0.40000,   0.40000,   0.40000  )

     Band symmetry, C_3v (3m)   double point group:

     e(  1 -  2) =     -5.10321  eV     2   --> G_4   L_6      
     e(  3 -  4) =     -0.08187  eV     2   --> G_4   L_6      
     e(  5 -  6) =      4.22715  eV     2   --> G_4   L_6      
     e(  7 -  8) =      4.26475  eV     2   --> G_5   L_4      
     e(  7 -  8) =      4.26475  eV     2   --> G_6   L_5      
     e(  9 - 10) =      7.83073  eV     2   --> G_4   L_6      
     e( 11 - 12) =      9.85368  eV     2   --> G_4   L_6      
     e( 13 - 14) =      9.86544  eV     2   --> G_5   L_4      
     e( 13 - 14) =      9.86544  eV     2   --> G_6   L_5      
     e( 15 - 16) =     13.16834  eV     2   --> G_4   L_6      

 **************************************************************************

 **************************************************************************

                    xk=(   0.37500,   0.37500,   0.37500  )

     Band symmetry, C_3v (3m)   double point group:

     e(  1 -  2) =     -5.22051  eV     2   --> G_4   L_6      
     e(  3 -  4) =      0.15749  eV     2   --> G_4   L_6      
     e(  5 -  6) =      4.25743  eV     2   --> G_4   L_6      
     e(  7 -  8) =      4.29505  eV     2   --> G_5   L_4      
     e(  7 -  8) =      4.29505  eV     2   --> G_6   L_5      
     e(  9 - 10) =      7.87911  eV     2   --> G_4   L_6      
     e( 11 - 12) =      9.90017  eV     2   --> G_4   L_6      
     e( 13 - 13) =      9.91242  eV     1   -->   ?
     e( 14 - 14) =      9.91253  eV     1   -->   ?
     e( 15 - 16) =     13.10033  eV     2   --> G_4   L_6      

 **************************************************************************

 **************************************************************************

                    xk=(   0.35000,   0.35000,   0.35000  )

     Band symmetry, C_3v (3m)   double point group:

     e(  1 -  2) =     -5.34776  eV     2   --> G_4   L_6      
     e(  3 -  4) =      0.43291  eV     2   --> G_4   L_6      
     e(  5 -  6) =      4.29388  eV     2   --> G_4   L_6      
     e(  7 -  8) =      4.33153  eV     2   --> G_5   L_4      
     e(  7 -  8) =      4.33153  eV     2   --> G_6   L_5      
     e(  9 - 10) =      7.93743  eV     2   --> G_4   L_6      
     e( 11 - 12) =      9.95048  eV     2   --> G_4   L_6      
     e( 13 - 13) =      9.96334  eV     1   -->   ?
     e( 14 - 14) =      9.96348  eV     1   -->   ?
     e( 15 - 16) =     12.97647  eV     2   --> G_4   L_6      

 **************************************************************************

 **************************************************************************

                    xk=(   0.32500,   0.32500,   0.32500  )

     Band symmetry, C_3v (3m)   double point group:

     e(  1 -  2) =     -5.47979  eV     2   --> G_4   L_6      
     e(  3 -  4) =      0.73857  eV     2   --> G_4   L_6      
     e(  5 -  6) =      4.33612  eV     2   --> G_4   L_6      
     e(  7 -  8) =      4.37381  eV     2   --> G_5   L_4      
     e(  7 -  8) =      4.37381  eV     2   --> G_6   L_5      
     e(  9 - 10) =      8.00517  eV     2   --> G_4   L_6      
     e( 11 - 12) =     10.00005  eV     2   --> G_4   L_6      
     e( 13 - 13) =     10.01367  eV     1   -->   ?
     e( 14 - 14) =     10.01383  eV     1   -->   ?
     e( 15 - 16) =     12.78291  eV     2   --> G_4   L_6      

 **************************************************************************

 **************************************************************************

                    xk=(   0.30000,   0.30000,   0.30000  )

     Band symmetry, C_3v (3m)   double point group:

     e(  1 -  2) =     -5.61237  eV     2   --> G_4   L_6      
     e(  3 -  4) =      1.06936  eV     2   --> G_4   L_6      
     e(  5 -  6) =      4.38363  eV     2   --> G_4   L_6      
     e(  7 -  8) =      4.42137  eV     2   --> G_5   L_4      
     e(  7 -  8) =      4.42137  eV     2   --> G_6   L_5      
     e(  9 - 10) =      8.08146  eV     2   --> G_4   L_6      
     e( 11 - 12) =     10.04303  eV     2   --> G_4   L_6      
     e( 13 - 13) =     10.05752  eV     1   -->   ?
     e( 14 - 14) =     10.05771  eV     1   -->   ?
     e( 15 - 16) =     12.52025  eV     2   --> G_4   L_6      

 **************************************************************************

 **************************************************************************

                    xk=(   0.27500,   0.27500,   0.27500  )

     Band symmetry, C_3v (3m)   double point group:

     e(  1 -  2) =     -5.74213  eV     2   --> G_4   L_6      
     e(  3 -  4) =      1.42085  eV     2   --> G_4   L_6      
     e(  5 -  6) =      4.43576  eV     2   --> G_4   L_6      
     e(  7 -  8) =      4.47356  eV     2   --> G_5   L_4      
     e(  7 -  8) =      4.47356  eV     2   --> G_6   L_5      
     e(  9 - 10) =      8.16510  eV     2   --> G_4   L_6      
     e( 11 - 12) =     10.07251  eV     2   --> G_4   L_6      
     e( 13 - 13) =     10.08798  eV     1   -->   ?
     e( 14 - 14) =     10.08819  eV     1   -->   ?
     e( 15 - 16) =     12.20221  eV     2   --> G_4   L_6      

 **************************************************************************

 **************************************************************************

                    xk=(   0.25000,   0.25000,   0.25000  )

     Band symmetry, C_3v (3m)   double point group:

     e(  1 -  2) =     -5.86644  eV     2   --> G_4   L_6      
     e(  3 -  4) =      1.78896  eV     2   --> G_4   L_6      
     e(  5 -  6) =      4.49168  eV     2   --> G_4   L_6      
     e(  7 -  8) =      4.52957  eV     2   --> G_5   L_4      
     e(  7 -  8) =      4.52957  eV     2   --> G_6   L_5      
     e(  9 - 10) =      8.25432  eV     2   --> G_4   L_6      
     e( 11 - 12) =     10.08146  eV     2   --> G_4   L_6      
     e( 13 - 13) =     10.09791  eV     1   -->   ?
     e( 14 - 14) =     10.09814  eV     1   -->   ?
     e( 15 - 16) =     11.84671  eV     2   --> G_4   L_6      

 **************************************************************************

 **************************************************************************

                    xk=(   0.22500,   0.22500,   0.22500  )

     Band symmetry, C_3v (3m)   double point group:

     e(  1 -  2) =     -5.98322  eV     2   --> G_4   L_6      
     e(  3 -  4) =      2.16983  eV     2   --> G_4   L_6      
     e(  5 -  6) =      4.55038  eV     2   --> G_4   L_6      
     e(  7 -  8) =      4.58837  eV     2   --> G_5   L_4      
     e(  7 -  8) =      4.58837  eV     2   --> G_6   L_5      
     e(  9 - 10) =      8.34663  eV     2   --> G_4   L_6      
     e( 11 - 12) =     10.06464  eV     2   --> G_4   L_6      
     e( 13 - 13) =     10.08196  eV     1   -->   ?
     e( 14 - 14) =     10.08219  eV     1   -->   ?
     e( 15 - 16) =     11.46981  eV     2   --> G_4   L_6      

 **************************************************************************

 **************************************************************************

                    xk=(   0.20000,   0.20000,   0.20000  )

     Band symmetry, C_3v (3m)   double point group:

     e(  1 -  2) =     -6.09088  eV     2   --> G_4   L_6      
     e(  3 -  4) =      2.55945  eV     2   --> G_4   L_6      
     e(  5 -  6) =      4.61059  eV     2   --> G_4   L_6      
     e(  7 -  8) =      4.64870  eV     2   --> G_5   L_4      
     e(  7 -  8) =      4.64870  eV     2   --> G_6   L_5      
     e(  9 - 10) =      8.43826  eV     2   --> G_4   L_6      
     e( 11 - 12) =     10.02035  eV     2   --> G_4   L_6      
     e( 13 - 13) =     10.03832  eV     1   -->   ?
     e( 14 - 14) =     10.03854  eV     1   -->   ?
     e( 15 - 16) =     11.08463  eV     2   --> G_4   L_6      

 **************************************************************************

 **************************************************************************

                    xk=(   0.17500,   0.17500,   0.17500  )

     Band symmetry, C_3v (3m)   double point group:

     e(  1 -  2) =     -6.18815  eV     2   --> G_4   L_6      
     e(  3 -  4) =      2.95325  eV     2   --> G_4   L_6      
     e(  5 -  6) =      4.67086  eV     2   --> G_4   L_6      
     e(  7 -  8) =      4.70907  eV     2   --> G_5   L_4      
     e(  7 -  8) =      4.70907  eV     2   --> G_6   L_5      
     e(  9 - 10) =      8.52315  eV     2   --> G_4   L_6      
     e( 11 - 12) =      9.95198  eV     2   --> G_4   L_6      
     e( 13 - 13) =      9.97033  eV     1   -->   ?
     e( 14 - 14) =      9.97054  eV     1   -->   ?
     e( 15 - 16) =     10.70344  eV     2   --> G_4   L_6      

 **************************************************************************

 **************************************************************************

                    xk=(   0.15000,   0.15000,   0.15000  )

     Band symmetry, C_3v (3m)   double point group:

     e(  1 -  2) =     -6.27406  eV     2   --> G_4   L_6      
     e(  3 -  4) =      3.34572  eV     2   --> G_4   L_6      
     e(  5 -  6) =      4.72941  eV     2   --> G_4   L_6      
     e(  7 -  8) =      4.76773  eV     2   --> G_5   L_4      
     e(  7 -  8) =      4.76773  eV     2   --> G_6   L_5      
     e(  9 - 10) =      8.59158  eV     2   --> G_4   L_6      
     e( 11 - 12) =      9.86693  eV     2   --> G_4   L_6      
     e( 13 - 13) =      9.88541  eV     1   -->   ?
     e( 14 - 14) =      9.88560  eV     1   -->   ?
     e( 15 - 16) =     10.34065  eV     2   --> G_4   L_6      

 **************************************************************************

 **************************************************************************

                    xk=(   0.12500,   0.12500,   0.12500  )

     Band symmetry, C_3v (3m)   double point group:

     e(  1 -  2) =     -6.34785  eV     2   --> G_4   L_6      
     e(  3 -  4) =      3.72948  eV     2   --> G_4   L_6      
     e(  5 -  6) =      4.78434  eV     2   --> G_4   L_6      
     e(  7 -  8) =      4.82269  eV     2   --> G_5   L_4      
     e(  7 -  8) =      4.82269  eV     2   --> G_6   L_5      
     e(  9 - 10) =      8.62708  eV     2   --> G_4   L_6      
     e( 11 - 12) =      9.77474  eV     2   --> G_4   L_6      
     e( 13 - 13) =      9.79325  eV     1   -->   ?
     e( 14 - 14) =      9.79341  eV     1   -->   ?
     e( 15 - 16) =     10.01726  eV     2   --> G_4   L_6      

 **************************************************************************

 **************************************************************************

                    xk=(   0.10000,   0.10000,   0.10000  )

     Band symmetry, C_3v (3m)   double point group:

     e(  1 -  2) =     -6.40893  eV     2   --> G_4   L_6      
     e(  3 -  4) =      4.09406  eV     2   --> G_4   L_6      
     e(  5 -  6) =      4.83359  eV     2   --> G_4   L_6      
     e(  7 -  8) =      4.87185  eV     2   --> G_5   L_4      
     e(  7 -  8) =      4.87185  eV     2   --> G_6   L_5      
     e(  9 - 10) =      8.60560  eV     2   --> G_4   L_6      
     e( 11 - 12) =      9.68452  eV     2   --> G_4   L_6      
     e( 13 - 13) =      9.70350  eV     1   -->   ?
     e( 14 - 14) =      9.70362  eV     1   -->   ?
     e( 15 - 16) =      9.76393  eV     2   --> G_4   L_6      

 **************************************************************************

 **************************************************************************

                    xk=(   0.07500,   0.07500,   0.07500  )

     Band symmetry, C_3v (3m)   double point group:

     e(  1 -  2) =     -6.45686  eV     2   --> G_4   L_6      
     e(  3 -  4) =      4.42387  eV     2   --> G_4   L_6      
     e(  5 -  6) =      4.87526  eV     2   --> G_4   L_6      
     e(  7 -  8) =      4.91305  eV     2   --> G_5   L_4      
     e(  7 -  8) =      4.91305  eV     2   --> G_6   L_5      
     e(  9 - 10) =      8.51147  eV     2   --> G_4   L_6      
     e( 11 - 12) =      9.59578  eV     2   --> G_4   L_6      
     e( 13 - 14) =      9.61562  eV     2   --> G_4   L_6      
     e( 15 - 16) =      9.62471  eV     2   --> G_5   L_4      
     e( 15 - 16) =      9.62471  eV     2   --> G_6   L_5      

 **************************************************************************

 **************************************************************************

                    xk=(   0.05000,   0.05000,   0.05000  )

     Band symmetry, C_3v (3m)   double point group:

     e(  1 -  2) =     -6.49132  eV     2   --> G_4   L_6      
     e(  3 -  4) =      4.69523  eV     2   --> G_4   L_6      
     e(  5 -  6) =      4.90821  eV     2   --> G_4   L_6      
     e(  7 -  8) =      4.94420  eV     2   --> G_5   L_4      
     e(  7 -  8) =      4.94420  eV     2   --> G_6   L_5      
     e(  9 - 10) =      8.37167  eV     2   --> G_4   L_6      
     e( 11 - 12) =      9.52549  eV     2   --> G_4   L_6      
     e( 13 - 14) =      9.55217  eV     2   --> G_4   L_6      
     e( 15 - 16) =      9.56351  eV     2   --> G_5   L_4      
     e( 15 - 16) =      9.56351  eV     2   --> G_6   L_5      

 **************************************************************************

 **************************************************************************

                    xk=(   0.02500,   0.02500,   0.02500  )

     Band symmetry, C_3v (3m)   double point group:

     e(  1 -  2) =     -6.51207  eV     2   --> G_4   L_6      
     e(  3 -  4) =      4.87015  eV     2   --> G_4   L_6      
     e(  5 -  6) =      4.93816  eV     2   --> G_4   L_6      
     e(  7 -  8) =      4.96364  eV     2   --> G_5   L_4      
     e(  7 -  8) =      4.96364  eV     2   --> G_6   L_5      
     e(  9 - 10) =      8.24933  eV     2   --> G_4   L_6      
     e( 11 - 12) =      9.49495  eV     2   --> G_4   L_6      
     e( 13 - 14) =      9.51972  eV     2   --> G_4   L_6      
     e( 15 - 16) =      9.52484  eV     2   --> G_5   L_4      
     e( 15 - 16) =      9.52484  eV     2   --> G_6   L_5      

 **************************************************************************

 **************************************************************************

                    xk=(   0.00000,   0.00000,   0.00000  )

     double point group T_d (-43m) 
     there are  8 classes and  3 irreducible representations
     the character table:

       E     -E    8C3   -8C3   3C2  6S4   -6S4  6s_d 
                               -3C2              -6s_d
G_6    2.00 -2.00  1.00 -1.00  0.00  1.41 -1.41  0.00
G_7    2.00 -2.00  1.00 -1.00  0.00 -1.41  1.41  0.00
G_8    4.00 -4.00 -1.00  1.00  0.00  0.00  0.00  0.00

     the symmetry operations in each class and the name of the first element:

     E             1
                                                                 
     -E           -1
                                                                 
     8C3           5    7    8    6   12    9   10   11
                                                                 
     -8C3         -5   -7   -8   -6  -12   -9  -10  -11
                                                                 
      3C2 -3C2     2   -2    3   -3    4   -4
                                                                 
     6S4          15   16   20   19   23   24
                                                                 
     -6S4        -15  -16  -20  -19  -23  -24
                                                                 
     6s_d -6s_d   13  -13  -14   14   17  -17  -18   18   21  -21   22  -22
                                                                 

     Band symmetry, T_d (-43m)  double point group:

     e(  1 -  2) =     -6.51901  eV     2   --> G_6  P_6       
     e(  3 -  4) =      4.91119  eV     2   --> G_7  P_7       
     e(  5 -  8) =      4.97026  eV     4   --> G_8  P_8       
     e(  9 - 10) =      8.20112  eV     2   --> G_6  P_6       
     e( 11 - 12) =      9.48485  eV     2   --> G_7  P_7       
     e( 13 - 16) =      9.51164  eV     4   --> G_8  P_8       

 **************************************************************************

 **************************************************************************

                    xk=(   0.03333,   0.00000,   0.00000  )

     double point group C_2v (mm2) 
     there are  5 classes and  1 irreducible representations
     the character table:

       E     -E     C2    s_v   s_v'
                   -C2   -s_v  -s_v'
G_5    2.00 -2.00  0.00  0.00  0.00

     the symmetry operations in each class and the name of the first element:

     E             1
                                                                 
     -E           -1
                                                                 
      C2  -C2      2   -2
                                                                 
      s_v -s_v     3   -3
                                                                 
      s_v'-s_v'    4   -4
                                                                 

     Band symmetry, C_2v (mm2)  double point group:

     e(  1 -  2) =     -6.51490  eV     2   --> G_5  D_5       
     e(  3 -  4) =      4.89426  eV     2   --> G_5  D_5       
     e(  5 -  6) =      4.94957  eV     2   --> G_5  D_5       
     e(  7 -  8) =      4.96011  eV     2   --> G_5  D_5       
     e(  9 - 10) =      8.23058  eV     2   --> G_5  D_5       
     e( 11 - 12) =      9.48355  eV     2   --> G_5  D_5       
     e( 13 - 14) =      9.51562  eV     2   --> G_5  D_5       
     e( 15 - 16) =      9.52719  eV     2   --> G_5  D_5       

 **************************************************************************

 **************************************************************************

                    xk=(   0.06667,   0.00000,   0.00000  )

     Band symmetry, C_2v (mm2)  double point group:

     e(  1 -  2) =     -6.50258  eV     2   --> G_5  D_5       
     e(  3 -  4) =      4.83087  eV     2   --> G_5  D_5       
     e(  5 -  6) =      4.90360  eV     2   --> G_5  D_5       
     e(  7 -  8) =      4.93017  eV     2   --> G_5  D_5       
     e(  9 - 10) =      8.31564  eV     2   --> G_5  D_5       
     e( 11 - 12) =      9.44957  eV     2   --> G_5  D_5       
     e( 13 - 14) =      9.55777  eV     2   --> G_5  D_5       
     e( 15 - 16) =      9.57338  eV     2   --> G_5  D_5       

 **************************************************************************

 **************************************************************************

                    xk=(   0.10000,   0.00000,   0.00000  )

     Band symmetry, C_2v (mm2)  double point group:

     e(  1 -  2) =     -6.48208  eV     2   --> G_5  D_5       
     e(  3 -  4) =      4.71308  eV     2   --> G_5  D_5       
     e(  5 -  6) =      4.84927  eV     2   --> G_5  D_5       
     e(  7 -  8) =      4.88180  eV     2   --> G_5  D_5       
     e(  9 - 10) =      8.44759  eV     2   --> G_5  D_5       
     e( 11 - 12) =      9.38809  eV     2   --> G_5  D_5       
     e( 13 - 14) =      9.63336  eV     2   --> G_5  D_5       
     e( 15 - 16) =      9.64885  eV     2   --> G_5  D_5       

 **************************************************************************

 **************************************************************************

                    xk=(   0.13333,   0.00000,   0.00000  )

     Band symmetry, C_2v (mm2)  double point group:

     e(  1 -  2) =     -6.45345  eV     2   --> G_5  D_5       
     e(  3 -  4) =      4.55573  eV     2   --> G_5  D_5       
     e(  5 -  6) =      4.78320  eV     2   --> G_5  D_5       
     e(  7 -  8) =      4.81706  eV     2   --> G_5  D_5       
     e(  9 - 10) =      8.61496  eV     2   --> G_5  D_5       
     e( 11 - 12) =      9.30507  eV     2   --> G_5  D_5       
     e( 13 - 14) =      9.73692  eV     2   --> G_5  D_5       
     e( 15 - 16) =      9.75148  eV     2   --> G_5  D_5       

 **************************************************************************

 **************************************************************************

                    xk=(   0.16667,   0.00000,   0.00000  )

     Band symmetry, C_2v (mm2)  double point group:

     e(  1 -  2) =     -6.41675  eV     2   --> G_5  D_5       
     e(  3 -  4) =      4.37089  eV     2   --> G_5  D_5       
     e(  5 -  6) =      4.70477  eV     2   --> G_5  D_5       
     e(  7 -  8) =      4.73845  eV     2   --> G_5  D_5       
     e(  9 - 10) =      8.80539  eV     2   --> G_5  D_5       
     e( 11 - 12) =      9.20431  eV     2   --> G_5  D_5       
     e( 13 - 14) =      9.86565  eV     2   --> G_5  D_5       
     e( 15 - 16) =      9.87893  eV     2   --> G_5  D_5       

 **************************************************************************

 **************************************************************************

                    xk=(   0.20000,   0.00000,   0.00000  )

     Band symmetry, C_2v (mm2)  double point group:

     e(  1 -  2) =     -6.37209  eV     2   --> G_5  D_5       
     e(  3 -  4) =      4.16676  eV     2   --> G_5  D_5       
     e(  5 -  6) =      4.61565  eV     2   --> G_5  D_5       
     e(  7 -  8) =      4.64855  eV     2   --> G_5  D_5       
     e(  9 - 10) =      9.00355  eV     2   --> G_5  D_5       
     e( 11 - 12) =      9.09200  eV     2   --> G_5  D_5       
     e( 13 - 14) =     10.01652  eV     2   --> G_5  D_5       
     e( 15 - 16) =     10.02835  eV     2   --> G_5  D_5       

 **************************************************************************

 **************************************************************************

                    xk=(   0.23333,   0.00000,   0.00000  )

     Band symmetry, C_2v (mm2)  double point group:

     e(  1 -  2) =     -6.31959  eV     2   --> G_5  D_5       
     e(  3 -  4) =      3.94931  eV     2   --> G_5  D_5       
     e(  5 -  6) =      4.51814  eV     2   --> G_5  D_5       
     e(  7 -  8) =      4.55000  eV     2   --> G_5  D_5       
     e(  9 - 10) =      8.95918  eV     2   --> G_5  D_5       
     e( 11 - 12) =      9.20802  eV     2   --> G_5  D_5       
     e( 13 - 14) =     10.18704  eV     2   --> G_5  D_5       
     e( 15 - 16) =     10.19735  eV     2   --> G_5  D_5       

 **************************************************************************

 **************************************************************************

                    xk=(   0.26667,   0.00000,   0.00000  )

     Band symmetry, C_2v (mm2)  double point group:

     e(  1 -  2) =     -6.25937  eV     2   --> G_5  D_5       
     e(  3 -  4) =      3.72281  eV     2   --> G_5  D_5       
     e(  5 -  6) =      4.41444  eV     2   --> G_5  D_5       
     e(  7 -  8) =      4.44517  eV     2   --> G_5  D_5       
     e(  9 - 10) =      8.82468  eV     2   --> G_5  D_5       
     e( 11 - 12) =      9.38621  eV     2   --> G_5  D_5       
     e( 13 - 14) =     10.37459  eV     2   --> G_5  D_5       
     e( 15 - 16) =     10.38336  eV     2   --> G_5  D_5       

 **************************************************************************

 **************************************************************************

                    xk=(   0.30000,   0.00000,   0.00000  )

     Band symmetry, C_2v (mm2)  double point group:

     e(  1 -  2) =     -6.19163  eV     2   --> G_5  D_5       
     e(  3 -  4) =      3.49036  eV     2   --> G_5  D_5       
     e(  5 -  6) =      4.30663  eV     2   --> G_5  D_5       
     e(  7 -  8) =      4.33619  eV     2   --> G_5  D_5       
     e(  9 - 10) =      8.68384  eV     2   --> G_5  D_5       
     e( 11 - 12) =      9.52463  eV     2   --> G_5  D_5       
     e( 13 - 14) =     10.57689  eV     2   --> G_5  D_5       
     e( 15 - 16) =     10.58415  eV     2   --> G_5  D_5       

 **************************************************************************

 **************************************************************************

                    xk=(   0.33333,   0.00000,   0.00000  )

     Band symmetry, C_2v (mm2)  double point group:

     e(  1 -  2) =     -6.11656  eV     2   --> G_5  D_5       
     e(  3 -  4) =      3.25419  eV     2   --> G_5  D_5       
     e(  5 -  6) =      4.19650  eV     2   --> G_5  D_5       
     e(  7 -  8) =      4.22492  eV     2   --> G_5  D_5       
     e(  9 - 10) =      8.53925  eV     2   --> G_5  D_5       
     e( 11 - 12) =      9.60030  eV     2   --> G_5  D_5       
     e( 13 - 14) =     10.79192  eV     2   --> G_5  D_5       
     e( 15 - 16) =     10.79774  eV     2   --> G_5  D_5       

 **************************************************************************

 **************************************************************************

                    xk=(   0.36667,   0.00000,   0.00000  )

     Band symmetry, C_2v (mm2)  double point group:

     e(  1 -  2) =     -6.03442  eV     2   --> G_5  D_5       
     e(  3 -  4) =      3.01602  eV     2   --> G_5  D_5       
     e(  5 -  6) =      4.08566  eV     2   --> G_5  D_5       
     e(  7 -  8) =      4.11300  eV     2   --> G_5  D_5       
     e(  9 - 10) =      8.39297  eV     2   --> G_5  D_5       
     e( 11 - 12) =      9.59818  eV     2   --> G_5  D_5       
     e( 13 - 14) =     11.01793  eV     2   --> G_5  D_5       
     e( 15 - 16) =     11.02243  eV     2   --> G_5  D_5       

 **************************************************************************

 **************************************************************************

                    xk=(   0.40000,   0.00000,   0.00000  )

     Band symmetry, C_2v (mm2)  double point group:

     e(  1 -  2) =     -5.94549  eV     2   --> G_5  D_5       
     e(  3 -  4) =      2.77710  eV     2   --> G_5  D_5       
     e(  5 -  6) =      3.97547  eV     2   --> G_5  D_5       
     e(  7 -  8) =      4.00179  eV     2   --> G_5  D_5       
     e(  9 - 10) =      8.24649  eV     2   --> G_5  D_5       
     e( 11 - 12) =      9.52095  eV     2   --> G_5  D_5       
     e( 13 - 14) =     11.25348  eV     2   --> G_5  D_5       
     e( 15 - 16) =     11.25685  eV     2   --> G_5  D_5       

 **************************************************************************

 **************************************************************************

                    xk=(   0.43333,   0.00000,   0.00000  )

     Band symmetry, C_2v (mm2)  double point group:

     e(  1 -  2) =     -5.85013  eV     2   --> G_5  D_5       
     e(  3 -  4) =      2.53847  eV     2   --> G_5  D_5       
     e(  5 -  6) =      3.86707  eV     2   --> G_5  D_5       
     e(  7 -  8) =      3.89244  eV     2   --> G_5  D_5       
     e(  9 - 10) =      8.10103  eV     2   --> G_5  D_5       
     e( 11 - 12) =      9.38670  eV     2   --> G_5  D_5       
     e( 13 - 14) =     11.49738  eV     2   --> G_5  D_5       
     e( 15 - 16) =     11.50003  eV     2   --> G_5  D_5       

 **************************************************************************

 **************************************************************************

                    xk=(   0.46667,   0.00000,   0.00000  )

     Band symmetry, C_2v (mm2)  double point group:

     e(  1 -  2) =     -5.74873  eV     2   --> G_5  D_5       
     e(  3 -  4) =      2.30097  eV     2   --> G_5  D_5       
     e(  5 -  6) =      3.76142  eV     2   --> G_5  D_5       
     e(  7 -  8) =      3.78592  eV     2   --> G_5  D_5       
     e(  9 - 10) =      7.95754  eV     2   --> G_5  D_5       
     e( 11 - 12) =      9.21714  eV     2   --> G_5  D_5       
     e( 13 - 14) =     11.74810  eV     2   --> G_5  D_5       
     e( 15 - 16) =     11.75065  eV     2   --> G_5  D_5       

 **************************************************************************

 **************************************************************************

                    xk=(   0.50000,   0.00000,   0.00000  )

     Band symmetry, C_2v (mm2)  double point group:

     e(  1 -  2) =     -5.64178  eV     2   --> G_5  D_5       
     e(  3 -  4) =      2.06540  eV     2   --> G_5  D_5       
     e(  5 -  6) =      3.65936  eV     2   --> G_5  D_5       
     e(  7 -  8) =      3.68305  eV     2   --> G_5  D_5       
     e(  9 - 10) =      7.81683  eV     2   --> G_5  D_5       
     e( 11 - 12) =      9.03003  eV     2   --> G_5  D_5       
     e( 13 - 14) =     12.00498  eV     2   --> G_5  D_5       
     e( 15 - 16) =     12.00802  eV     2   --> G_5  D_5       

 **************************************************************************

 **************************************************************************

                    xk=(   0.53333,   0.00000,   0.00000  )

     Band symmetry, C_2v (mm2)  double point group:

     e(  1 -  2) =     -5.52984  eV     2   --> G_5  D_5       
     e(  3 -  4) =      1.83253  eV     2   --> G_5  D_5       
     e(  5 -  6) =      3.56157  eV     2   --> G_5  D_5       
     e(  7 -  8) =      3.58453  eV     2   --> G_5  D_5       
     e(  9 - 10) =      7.67959  eV     2   --> G_5  D_5       
     e( 11 - 12) =      8.83769  eV     2   --> G_5  D_5       
     e( 13 - 14) =     12.26746  eV     2   --> G_5  D_5       
     e( 15 - 16) =     12.27128  eV     2   --> G_5  D_5       

 **************************************************************************

 **************************************************************************

                    xk=(   0.56667,   0.00000,   0.00000  )

     Band symmetry, C_2v (mm2)  double point group:

     e(  1 -  2) =     -5.41360  eV     2   --> G_5  D_5       
     e(  3 -  4) =      1.60317  eV     2   --> G_5  D_5       
     e(  5 -  6) =      3.46864  eV     2   --> G_5  D_5       
     e(  7 -  8) =      3.49093  eV     2   --> G_5  D_5       
     e(  9 - 10) =      7.54641  eV     2   --> G_5  D_5       
     e( 11 - 12) =      8.64819  eV     2   --> G_5  D_5       
     e( 13 - 14) =     12.53501  eV     2   --> G_5  D_5       
     e( 15 - 16) =     12.53971  eV     2   --> G_5  D_5       

 **************************************************************************

 **************************************************************************

                    xk=(   0.60000,   0.00000,   0.00000  )

     Band symmetry, C_2v (mm2)  double point group:

     e(  1 -  2) =     -5.29386  eV     2   --> G_5  D_5       
     e(  3 -  4) =      1.37824  eV     2   --> G_5  D_5       
     e(  5 -  6) =      3.38106  eV     2   --> G_5  D_5       
     e(  7 -  8) =      3.40275  eV     2   --> G_5  D_5       
     e(  9 - 10) =      7.41788  eV     2   --> G_5  D_5       
     e( 11 - 12) =      8.46699  eV     2   --> G_5  D_5       
     e( 13 - 14) =     12.80733  eV     2   --> G_5  D_5       
     e( 15 - 16) =     12.81291  eV     2   --> G_5  D_5       

 **************************************************************************

 **************************************************************************

                    xk=(   0.63333,   0.00000,   0.00000  )

     Band symmetry, C_2v (mm2)  double point group:

     e(  1 -  2) =     -5.17161  eV     2   --> G_5  D_5       
     e(  3 -  4) =      1.15878  eV     2   --> G_5  D_5       
     e(  5 -  6) =      3.29927  eV     2   --> G_5  D_5       
     e(  7 -  8) =      3.32041  eV     2   --> G_5  D_5       
     e(  9 - 10) =      7.29464  eV     2   --> G_5  D_5       
     e( 11 - 12) =      8.29751  eV     2   --> G_5  D_5       
     e( 13 - 14) =     13.08377  eV     2   --> G_5  D_5       
     e( 15 - 16) =     13.09021  eV     2   --> G_5  D_5       

 **************************************************************************

 **************************************************************************

                    xk=(   0.66667,   0.00000,   0.00000  )

     Band symmetry, C_2v (mm2)  double point group:

     e(  1 -  2) =     -5.04799  eV     2   --> G_5  D_5       
     e(  3 -  4) =      0.94603  eV     2   --> G_5  D_5       
     e(  5 -  6) =      3.22362  eV     2   --> G_5  D_5       
     e(  7 -  8) =      3.24427  eV     2   --> G_5  D_5       
     e(  9 - 10) =      7.17744  eV     2   --> G_5  D_5       
     e( 11 - 12) =      8.14189  eV     2   --> G_5  D_5       
     e( 13 - 14) =     13.36410  eV     2   --> G_5  D_5       
     e( 15 - 16) =     13.37134  eV     2   --> G_5  D_5       

 **************************************************************************

 **************************************************************************

                    xk=(   0.70000,   0.00000,   0.00000  )

     Band symmetry, C_2v (mm2)  double point group:

     e(  1 -  2) =     -4.92442  eV     2   --> G_5  D_5       
     e(  3 -  4) =      0.74146  eV     2   --> G_5  D_5       
     e(  5 -  6) =      3.15440  eV     2   --> G_5  D_5       
     e(  7 -  8) =      3.17463  eV     2   --> G_5  D_5       
     e(  9 - 10) =      7.06712  eV     2   --> G_5  D_5       
     e( 11 - 12) =      8.00141  eV     2   --> G_5  D_5       
     e( 13 - 14) =     13.64793  eV     2   --> G_5  D_5       
     e( 15 - 16) =     13.65593  eV     2   --> G_5  D_5       

 **************************************************************************

 **************************************************************************

                    xk=(   0.73333,   0.00000,   0.00000  )

     Band symmetry, C_2v (mm2)  double point group:

     e(  1 -  2) =     -4.80260  eV     2   --> G_5  D_5       
     e(  3 -  4) =      0.54684  eV     2   --> G_5  D_5       
     e(  5 -  6) =      3.09187  eV     2   --> G_5  D_5       
     e(  7 -  8) =      3.11173  eV     2   --> G_5  D_5       
     e(  9 - 10) =      6.96468  eV     2   --> G_5  D_5       
     e( 11 - 12) =      7.87665  eV     2   --> G_5  D_5       
     e( 13 - 14) =     13.93492  eV     2   --> G_5  D_5       
     e( 15 - 16) =     13.94363  eV     2   --> G_5  D_5       

 **************************************************************************

 **************************************************************************

                    xk=(   0.76667,   0.00000,   0.00000  )

     Band symmetry, C_2v (mm2)  double point group:

     e(  1 -  2) =     -4.68454  eV     2   --> G_5  D_5       
     e(  3 -  4) =      0.36427  eV     2   --> G_5  D_5       
     e(  5 -  6) =      3.03626  eV     2   --> G_5  D_5       
     e(  7 -  8) =      3.05578  eV     2   --> G_5  D_5       
     e(  9 - 10) =      6.87113  eV     2   --> G_5  D_5       
     e( 11 - 12) =      7.76774  eV     2   --> G_5  D_5       
     e( 13 - 14) =     14.22449  eV     2   --> G_5  D_5       
     e( 15 - 16) =     14.23384  eV     2   --> G_5  D_5       

 **************************************************************************

 **************************************************************************

                    xk=(   0.80000,   0.00000,   0.00000  )

     Band symmetry, C_2v (mm2)  double point group:

     e(  1 -  2) =     -4.57264  eV     2   --> G_5  D_5       
     e(  3 -  4) =      0.19623  eV     2   --> G_5  D_5       
     e(  5 -  6) =      2.98772  eV     2   --> G_5  D_5       
     e(  7 -  8) =      3.00697  eV     2   --> G_5  D_5       
     e(  9 - 10) =      6.78758  eV     2   --> G_5  D_5       
     e( 11 - 12) =      7.67452  eV     2   --> G_5  D_5       
     e( 13 - 14) =     14.51591  eV     2   --> G_5  D_5       
     e( 15 - 16) =     14.52588  eV     2   --> G_5  D_5       

 **************************************************************************

 **************************************************************************

                    xk=(   0.83333,   0.00000,   0.00000  )

     Band symmetry, C_2v (mm2)  double point group:

     e(  1 -  2) =     -4.46968  eV     2   --> G_5  D_5       
     e(  3 -  4) =      0.04558  eV     2   --> G_5  D_5       
     e(  5 -  6) =      2.94642  eV     2   --> G_5  D_5       
     e(  7 -  8) =      2.96543  eV     2   --> G_5  D_5       
     e(  9 - 10) =      6.71498  eV     2   --> G_5  D_5       
     e( 11 - 12) =      7.59659  eV     2   --> G_5  D_5       
     e( 13 - 14) =     14.80792  eV     2   --> G_5  D_5       
     e( 15 - 16) =     14.81845  eV     2   --> G_5  D_5       

 **************************************************************************

 **************************************************************************

                    xk=(   0.86667,   0.00000,   0.00000  )

     Band symmetry, C_2v (mm2)  double point group:

     e(  1 -  2) =     -4.37877  eV     2   --> G_5  D_5       
     e(  3 -  4) =     -0.08448  eV     2   --> G_5  D_5       
     e(  5 -  6) =      2.91247  eV     2   --> G_5  D_5       
     e(  7 -  8) =      2.93129  eV     2   --> G_5  D_5       
     e(  9 - 10) =      6.65429  eV     2   --> G_5  D_5       
     e( 11 - 12) =      7.53356  eV     2   --> G_5  D_5       
     e( 13 - 14) =     15.09820  eV     2   --> G_5  D_5       
     e( 15 - 16) =     15.10929  eV     2   --> G_5  D_5       

 **************************************************************************

 **************************************************************************

                    xk=(   0.90000,   0.00000,   0.00000  )

     Band symmetry, C_2v (mm2)  double point group:

     e(  1 -  2) =     -4.30324  eV     2   --> G_5  D_5       
     e(  3 -  4) =     -0.19055  eV     2   --> G_5  D_5       
     e(  5 -  6) =      2.88597  eV     2   --> G_5  D_5       
     e(  7 -  8) =      2.90465  eV     2   --> G_5  D_5       
     e(  9 - 10) =      6.60623  eV     2   --> G_5  D_5       
     e( 11 - 12) =      7.48495  eV     2   --> G_5  D_5       
     e( 13 - 14) =     15.38197  eV     2   --> G_5  D_5       
     e( 15 - 16) =     15.39362  eV     2   --> G_5  D_5       

 **************************************************************************

 **************************************************************************

                    xk=(   0.93333,   0.00000,   0.00000  )

     Band symmetry, C_2v (mm2)  double point group:

     e(  1 -  2) =     -4.24635  eV     2   --> G_5  D_5       
     e(  3 -  4) =     -0.26931  eV     2   --> G_5  D_5       
     e(  5 -  6) =      2.86700  eV     2   --> G_5  D_5       
     e(  7 -  8) =      2.88557  eV     2   --> G_5  D_5       
     e(  9 - 10) =      6.57150  eV     2   --> G_5  D_5       
     e( 11 - 12) =      7.45054  eV     2   --> G_5  D_5       
     e( 13 - 14) =     15.64793  eV     2   --> G_5  D_5       
     e( 15 - 16) =     15.66018  eV     2   --> G_5  D_5       

 **************************************************************************

 **************************************************************************

                    xk=(   0.96667,   0.00000,   0.00000  )

     Band symmetry, C_2v (mm2)  double point group:

     e(  1 -  2) =     -4.21091  eV     2   --> G_5  D_5       
     e(  3 -  4) =     -0.31789  eV     2   --> G_5  D_5       
     e(  5 -  6) =      2.85559  eV     2   --> G_5  D_5       
     e(  7 -  8) =      2.87409  eV     2   --> G_5  D_5       
     e(  9 - 10) =      6.55050  eV     2   --> G_5  D_5       
     e( 11 - 12) =      7.42996  eV     2   --> G_5  D_5       
     e( 13 - 14) =     15.86558  eV     2   --> G_5  D_5       
     e( 15 - 16) =     15.87844  eV     2   --> G_5  D_5       

 **************************************************************************

 **************************************************************************

                    xk=(   1.00000,   0.00000,   0.00000  )

     double point group D_2d (-42m)
     there are  7 classes and  2 irreducible representations
     the character table:

       E     -E    2S4   -2S4  C2    2C2'  2s_d 
                               -C2   -2C2' -2s_d
G_6    2.00 -2.00  1.41 -1.41  0.00  0.00  0.00
G_7    2.00 -2.00 -1.41  1.41  0.00  0.00  0.00

     the symmetry operations in each class and the name of the first element:

     E             1
                                                                 
     -E           -1
                                                                 
     2S4           7    8
                                                                 
     -2S4         -7   -8
                                                                 
     C2   -C2      4   -4
                                                                 
     2C2' -2C2'    2   -2    3   -3
                                                                 
     2s_d -2s_d    5    6   -6   -5
                                                                 

     Band symmetry, D_2d (-42m) double point group:

     e(  1 -  2) =     -4.19886  eV     2   --> G_7  X_7  W_7  
     e(  3 -  4) =     -0.33432  eV     2   --> G_6  X_6  W_6  
     e(  5 -  6) =      2.85178  eV     2   --> G_6  X_6  W_6  
     e(  7 -  8) =      2.87027  eV     2   --> G_7  X_7  W_7  
     e(  9 - 10) =      6.54345  eV     2   --> G_7  X_7  W_7  
     e( 11 - 12) =      7.42311  eV     2   --> G_6  X_6  W_6  
     e( 13 - 14) =     15.95978  eV     2   --> G_6  X_6  W_6  
     e( 15 - 16) =     15.97297  eV     2   --> G_7  X_7  W_7  

 **************************************************************************

 **************************************************************************

                    xk=(   1.00000,   0.02500,   0.02500  )

     double point group C_s (m)    
     there are  4 classes and  2 irreducible representations
     the character table:

       E     -E    s     -s   
                              
G_3    1.00 -1.00  0.00  0.00
G_4    1.00 -1.00  0.00  0.00

     imaginary part

       E     -E    s     -s   
                              
G_3    0.00  0.00  1.00 -1.00
G_4    0.00  0.00 -1.00  1.00

     the symmetry operations in each class and the name of the first element:

     E             1
                                                                 
     -E           -1
                                                                 
     s             2
                                                                 
     -s           -2
                                                                 

     Band symmetry, C_s (m)     double point group:

     e(  1 -  1) =     -4.19841  eV     1   --> G_4            
     e(  2 -  2) =     -4.19817  eV     1   --> G_3            
     e(  3 -  3) =     -0.33118  eV     1   --> G_3            
     e(  4 -  4) =     -0.33028  eV     1   --> G_4            
     e(  5 -  5) =      2.82837  eV     1   --> G_4            
     e(  6 -  6) =      2.83018  eV     1   --> G_3            
     e(  7 -  7) =      2.86688  eV     1   --> G_3            
     e(  8 -  8) =      2.86761  eV     1   --> G_4            
     e(  9 -  9) =      6.56763  eV     1   --> G_4            
     e( 10 - 10) =      6.56837  eV     1   --> G_3            
     e( 11 - 11) =      7.44841  eV     1   --> G_3            
     e( 12 - 12) =      7.44986  eV     1   --> G_4            
     e( 13 - 13) =     15.89444  eV     1   --> G_3            
     e( 14 - 14) =     15.89575  eV     1   --> G_4            
     e( 15 - 15) =     15.93440  eV     1   --> G_3            
     e( 16 - 16) =     15.93611  eV     1   --> G_4            

 **************************************************************************

 **************************************************************************

                    xk=(   1.00000,   0.05000,   0.05000  )

     Band symmetry, C_s (m)     double point group:

     e(  1 -  1) =     -4.19691  eV     1   --> G_4            
     e(  2 -  2) =     -4.19643  eV     1   --> G_3            
     e(  3 -  3) =     -0.32095  eV     1   --> G_3            
     e(  4 -  4) =     -0.31914  eV     1   --> G_4            
     e(  5 -  5) =      2.74599  eV     1   --> G_4            
     e(  6 -  6) =      2.74856  eV     1   --> G_3            
     e(  7 -  7) =      2.87678  eV     1   --> G_3            
     e(  8 -  8) =      2.87722  eV     1   --> G_4            
     e(  9 -  9) =      6.63350  eV     1   --> G_4            
     e( 10 - 10) =      6.63498  eV     1   --> G_3            
     e( 11 - 11) =      7.52870  eV     1   --> G_3            
     e( 12 - 12) =      7.53155  eV     1   --> G_4            
     e( 13 - 13) =     15.71116  eV     1   --> G_3            
     e( 14 - 14) =     15.71179  eV     1   --> G_4            
     e( 15 - 15) =     15.83717  eV     1   --> G_3            
     e( 16 - 16) =     15.84358  eV     1   --> G_4            

 **************************************************************************

 **************************************************************************

                    xk=(   1.00000,   0.07500,   0.07500  )

     Band symmetry, C_s (m)     double point group:

     e(  1 -  1) =     -4.19469  eV     1   --> G_4            
     e(  2 -  2) =     -4.19398  eV     1   --> G_3            
     e(  3 -  3) =     -0.30390  eV     1   --> G_3            
     e(  4 -  4) =     -0.30114  eV     1   --> G_4            
     e(  5 -  5) =      2.61899  eV     1   --> G_4            
     e(  6 -  6) =      2.62244  eV     1   --> G_3            
     e(  7 -  7) =      2.89559  eV     1   --> G_3            
     e(  8 -  8) =      2.89589  eV     1   --> G_4            
     e(  9 -  9) =      6.72344  eV     1   --> G_4            
     e( 10 - 10) =      6.72555  eV     1   --> G_3            
     e( 11 - 11) =      7.67086  eV     1   --> G_3            
     e( 12 - 12) =      7.67496  eV     1   --> G_4            
     e( 13 - 13) =     15.45958  eV     1   --> G_3            
     e( 14 - 14) =     15.45998  eV     1   --> G_4            
     e( 15 - 15) =     15.68285  eV     1   --> G_3            
     e( 16 - 16) =     15.69617  eV     1   --> G_4            

 **************************************************************************

 **************************************************************************

                    xk=(   1.00000,   0.10000,   0.10000  )

     Band symmetry, C_s (m)     double point group:

     e(  1 -  1) =     -4.19230  eV     1   --> G_4            
     e(  2 -  2) =     -4.19136  eV     1   --> G_3            
     e(  3 -  3) =     -0.28048  eV     1   --> G_3            
     e(  4 -  4) =     -0.27669  eV     1   --> G_4            
     e(  5 -  5) =      2.46257  eV     1   --> G_4            
     e(  6 -  6) =      2.46697  eV     1   --> G_3            
     e(  7 -  7) =      2.92209  eV     1   --> G_3            
     e(  8 -  8) =      2.92232  eV     1   --> G_4            
     e(  9 -  9) =      6.82005  eV     1   --> G_4            
     e( 10 - 10) =      6.82251  eV     1   --> G_3            
     e( 11 - 11) =      7.87898  eV     1   --> G_3            
     e( 12 - 12) =      7.88401  eV     1   --> G_4            
     e( 13 - 13) =     15.17421  eV     1   --> G_3            
     e( 14 - 14) =     15.17450  eV     1   --> G_4            
     e( 15 - 15) =     15.46807  eV     1   --> G_3            
     e( 16 - 16) =     15.49033  eV     1   --> G_4            

 **************************************************************************

 **************************************************************************

                    xk=(   1.00000,   0.12500,   0.12500  )

     Band symmetry, C_s (m)     double point group:

     e(  1 -  1) =     -4.19049  eV     1   --> G_4            
     e(  2 -  2) =     -4.18934  eV     1   --> G_3            
     e(  3 -  3) =     -0.25132  eV     1   --> G_3            
     e(  4 -  4) =     -0.24645  eV     1   --> G_4            
     e(  5 -  5) =      2.29052  eV     1   --> G_4            
     e(  6 -  6) =      2.29593  eV     1   --> G_3            
     e(  7 -  7) =      2.95603  eV     1   --> G_3            
     e(  8 -  8) =      2.95622  eV     1   --> G_4            
     e(  9 -  9) =      6.91443  eV     1   --> G_4            
     e( 10 - 10) =      6.91696  eV     1   --> G_3            
     e( 11 - 11) =      8.14903  eV     1   --> G_3            
     e( 12 - 12) =      8.15466  eV     1   --> G_4            
     e( 13 - 13) =     14.87390  eV     1   --> G_3            
     e( 14 - 14) =     14.87412  eV     1   --> G_4            
     e( 15 - 15) =     15.19152  eV     1   --> G_3            
     e( 16 - 16) =     15.21252  eV     1   --> G_4            

 **************************************************************************

 **************************************************************************

                    xk=(   1.00000,   0.15000,   0.15000  )

     Band symmetry, C_s (m)     double point group:

     e(  1 -  1) =     -4.19023  eV     1   --> G_4            
     e(  2 -  2) =     -4.18889  eV     1   --> G_3            
     e(  3 -  3) =     -0.21734  eV     1   --> G_3            
     e(  4 -  4) =     -0.21128  eV     1   --> G_4            
     e(  5 -  5) =      2.11472  eV     1   --> G_4            
     e(  6 -  6) =      2.12122  eV     1   --> G_3            
     e(  7 -  7) =      2.99720  eV     1   --> G_3            
     e(  8 -  8) =      2.99735  eV     1   --> G_4            
     e(  9 -  9) =      7.00587  eV     1   --> G_4            
     e( 10 - 10) =      7.00825  eV     1   --> G_3            
     e( 11 - 11) =      8.47067  eV     1   --> G_3            
     e( 12 - 12) =      8.47670  eV     1   --> G_4            
     e( 13 - 13) =     14.56875  eV     1   --> G_3            
     e( 14 - 14) =     14.56895  eV     1   --> G_4            
     e( 15 - 15) =     14.88346  eV     1   --> G_3            
     e( 16 - 16) =     14.89908  eV     1   --> G_4            

 **************************************************************************

 **************************************************************************

                    xk=(   1.00000,   0.17500,   0.17500  )

     Band symmetry, C_s (m)     double point group:

     e(  1 -  1) =     -4.19272  eV     1   --> G_4            
     e(  2 -  2) =     -4.19120  eV     1   --> G_3            
     e(  3 -  3) =     -0.17967  eV     1   --> G_3            
     e(  4 -  4) =     -0.17232  eV     1   --> G_4            
     e(  5 -  5) =      1.94511  eV     1   --> G_4            
     e(  6 -  6) =      1.95279  eV     1   --> G_3            
     e(  7 -  7) =      3.04538  eV     1   --> G_3            
     e(  8 -  8) =      3.04551  eV     1   --> G_4            
     e(  9 -  9) =      7.09698  eV     1   --> G_4            
     e( 10 - 10) =      7.09911  eV     1   --> G_3            
     e( 11 - 11) =      8.83184  eV     1   --> G_3            
     e( 12 - 12) =      8.83820  eV     1   --> G_4            
     e( 13 - 13) =     14.26445  eV     1   --> G_3            
     e( 14 - 14) =     14.26464  eV     1   --> G_4            
     e( 15 - 15) =     14.56850  eV     1   --> G_3            
     e( 16 - 16) =     14.58074  eV     1   --> G_4            

 **************************************************************************

 **************************************************************************

                    xk=(   1.00000,   0.20000,   0.20000  )

     Band symmetry, C_s (m)     double point group:

     e(  1 -  1) =     -4.19930  eV     1   --> G_4            
     e(  2 -  2) =     -4.19762  eV     1   --> G_3            
     e(  3 -  3) =     -0.13971  eV     1   --> G_3            
     e(  4 -  4) =     -0.13100  eV     1   --> G_4            
     e(  5 -  5) =      1.79004  eV     1   --> G_4            
     e(  6 -  6) =      1.79901  eV     1   --> G_3            
     e(  7 -  7) =      3.10030  eV     1   --> G_3            
     e(  8 -  8) =      3.10042  eV     1   --> G_4            
     e(  9 -  9) =      7.19054  eV     1   --> G_4            
     e( 10 - 10) =      7.19239  eV     1   --> G_3            
     e( 11 - 11) =      9.22191  eV     1   --> G_3            
     e( 12 - 12) =      9.22863  eV     1   --> G_4            
     e( 13 - 13) =     13.96449  eV     1   --> G_3            
     e( 14 - 14) =     13.96467  eV     1   --> G_4            
     e( 15 - 15) =     14.25542  eV     1   --> G_3            
     e( 16 - 16) =     14.26571  eV     1   --> G_4            

 **************************************************************************

 **************************************************************************

                    xk=(   1.00000,   0.22500,   0.22500  )

     Band symmetry, C_s (m)     double point group:

     e(  1 -  1) =     -4.21145  eV     1   --> G_4            
     e(  2 -  2) =     -4.20966  eV     1   --> G_3            
     e(  3 -  3) =     -0.09900  eV     1   --> G_3            
     e(  4 -  4) =     -0.08889  eV     1   --> G_4            
     e(  5 -  5) =      1.65669  eV     1   --> G_4            
     e(  6 -  6) =      1.66700  eV     1   --> G_3            
     e(  7 -  7) =      3.16167  eV     1   --> G_3            
     e(  8 -  8) =      3.16178  eV     1   --> G_4            
     e(  9 -  9) =      7.28857  eV     1   --> G_4            
     e( 10 - 10) =      7.29016  eV     1   --> G_3            
     e( 11 - 11) =      9.63141  eV     1   --> G_3            
     e( 12 - 12) =      9.63857  eV     1   --> G_4            
     e( 13 - 13) =     13.67116  eV     1   --> G_3            
     e( 14 - 14) =     13.67134  eV     1   --> G_4            
     e( 15 - 15) =     13.94776  eV     1   --> G_3            
     e( 16 - 16) =     13.95695  eV     1   --> G_4            

 **************************************************************************

 **************************************************************************

                    xk=(   1.00000,   0.25000,   0.25000  )

     Band symmetry, C_s (m)     double point group:

     e(  1 -  1) =     -4.23071  eV     1   --> G_4            
     e(  2 -  2) =     -4.22883  eV     1   --> G_3            
     e(  3 -  3) =     -0.05898  eV     1   --> G_3            
     e(  4 -  4) =     -0.04751  eV     1   --> G_4            
     e(  5 -  5) =      1.55104  eV     1   --> G_4            
     e(  6 -  6) =      1.56266  eV     1   --> G_3            
     e(  7 -  8) =      3.22913  eV     2   --> G_3            
     e(  7 -  8) =      3.22913  eV     2   --> G_4            
     e(  9 -  9) =      7.39230  eV     1   --> G_4            
     e( 10 - 10) =      7.39361  eV     1   --> G_3            
     e( 11 - 11) =     10.05066  eV     1   --> G_3            
     e( 12 - 12) =     10.05836  eV     1   --> G_4            
     e( 13 - 13) =     13.38588  eV     1   --> G_3            
     e( 14 - 14) =     13.38608  eV     1   --> G_4            
     e( 15 - 15) =     13.64704  eV     1   --> G_3            
     e( 16 - 16) =     13.65573  eV     1   --> G_4            

 **************************************************************************

 **************************************************************************

                    xk=(   0.96667,   0.24167,   0.24167  )

     Band symmetry, C_s (m)     double point group:

     e(  1 -  1) =     -4.23104  eV     1   --> G_4            
     e(  2 -  2) =     -4.22921  eV     1   --> G_3            
     e(  3 -  3) =     -0.06992  eV     1   --> G_3            
     e(  4 -  4) =     -0.05902  eV     1   --> G_4            
     e(  5 -  5) =      1.59768  eV     1   --> G_4            
     e(  6 -  6) =      1.60877  eV     1   --> G_3            
     e(  7 -  8) =      3.20936  eV     2   --> G_3            
     e(  7 -  8) =      3.20936  eV     2   --> G_4            
     e(  9 -  9) =      7.36369  eV     1   --> G_4            
     e( 10 - 10) =      7.36509  eV     1   --> G_3            
     e( 11 - 11) =      9.91469  eV     1   --> G_3            
     e( 12 - 12) =      9.92222  eV     1   --> G_4            
     e( 13 - 13) =     13.42434  eV     1   --> G_3            
     e( 14 - 14) =     13.42450  eV     1   --> G_4            
     e( 15 - 15) =     13.62375  eV     1   --> G_3            
     e( 16 - 16) =     13.62953  eV     1   --> G_4            

 **************************************************************************

 **************************************************************************

                    xk=(   0.93333,   0.23333,   0.23333  )

     Band symmetry, C_s (m)     double point group:

     e(  1 -  1) =     -4.24848  eV     1   --> G_4            
     e(  2 -  2) =     -4.24672  eV     1   --> G_3            
     e(  3 -  3) =     -0.07182  eV     1   --> G_3            
     e(  4 -  4) =     -0.06166  eV     1   --> G_4            
     e(  5 -  5) =      1.67345  eV     1   --> G_4            
     e(  6 -  6) =      1.68386  eV     1   --> G_3            
     e(  7 -  7) =      3.19710  eV     1   --> G_3            
     e(  8 -  8) =      3.19720  eV     1   --> G_4            
     e(  9 -  9) =      7.34910  eV     1   --> G_4            
     e( 10 - 10) =      7.35059  eV     1   --> G_3            
     e( 11 - 11) =      9.78825  eV     1   --> G_3            
     e( 12 - 12) =      9.79566  eV     1   --> G_4            
     e( 13 - 14) =     13.37445  eV     2   --> G_3            
     e( 13 - 14) =     13.37445  eV     2   --> G_4            
     e( 15 - 15) =     13.47025  eV     1   --> G_3            
     e( 16 - 16) =     13.47333  eV     1   --> G_4            

 **************************************************************************

 **************************************************************************

                    xk=(   0.90000,   0.22500,   0.22500  )

     Band symmetry, C_s (m)     double point group:

     e(  1 -  1) =     -4.28375  eV     1   --> G_4            
     e(  2 -  2) =     -4.28211  eV     1   --> G_3            
     e(  3 -  3) =     -0.05850  eV     1   --> G_3            
     e(  4 -  4) =     -0.04917  eV     1   --> G_4            
     e(  5 -  5) =      1.77251  eV     1   --> G_4            
     e(  6 -  6) =      1.78222  eV     1   --> G_3            
     e(  7 -  7) =      3.19251  eV     1   --> G_3            
     e(  8 -  8) =      3.19262  eV     1   --> G_4            
     e(  9 -  9) =      7.34865  eV     1   --> G_4            
     e( 10 - 10) =      7.35024  eV     1   --> G_3            
     e( 11 - 11) =      9.67286  eV     1   --> G_3            
     e( 12 - 12) =      9.68018  eV     1   --> G_4            
     e( 13 - 13) =     13.27253  eV     1   --> G_4            
     e( 14 - 14) =     13.27265  eV     1   --> G_3            
     e( 15 - 15) =     13.28455  eV     1   --> G_3            
     e( 16 - 16) =     13.28642  eV     1   --> G_4            

 **************************************************************************

 **************************************************************************

                    xk=(   0.86667,   0.21667,   0.21667  )

     Band symmetry, C_s (m)     double point group:

     e(  1 -  1) =     -4.33673  eV     1   --> G_4            
     e(  2 -  2) =     -4.33523  eV     1   --> G_3            
     e(  3 -  3) =     -0.02566  eV     1   --> G_3            
     e(  4 -  4) =     -0.01714  eV     1   --> G_4            
     e(  5 -  5) =      1.88993  eV     1   --> G_4            
     e(  6 -  6) =      1.89895  eV     1   --> G_3            
     e(  7 -  7) =      3.19571  eV     1   --> G_3            
     e(  8 -  8) =      3.19582  eV     1   --> G_4            
     e(  9 -  9) =      7.36230  eV     1   --> G_4            
     e( 10 - 10) =      7.36398  eV     1   --> G_3            
     e( 11 - 11) =      9.56968  eV     1   --> G_3            
     e( 12 - 12) =      9.57694  eV     1   --> G_4            
     e( 13 - 13) =     13.08211  eV     1   --> G_3            
     e( 14 - 14) =     13.08290  eV     1   --> G_4            
     e( 15 - 15) =     13.15391  eV     1   --> G_3            
     e( 16 - 16) =     13.15411  eV     1   --> G_4            

 **************************************************************************

 **************************************************************************

                    xk=(   0.83333,   0.20833,   0.20833  )

     Band symmetry, C_s (m)     double point group:

     e(  1 -  1) =     -4.40644  eV     1   --> G_4            
     e(  2 -  2) =     -4.40509  eV     1   --> G_3            
     e(  3 -  3) =      0.02916  eV     1   --> G_3            
     e(  4 -  4) =      0.03690  eV     1   --> G_4            
     e(  5 -  5) =      2.02167  eV     1   --> G_4            
     e(  6 -  6) =      2.03007  eV     1   --> G_3            
     e(  7 -  7) =      3.20678  eV     1   --> G_3            
     e(  8 -  8) =      3.20690  eV     1   --> G_4            
     e(  9 -  9) =      7.38982  eV     1   --> G_4            
     e( 10 - 10) =      7.39159  eV     1   --> G_3            
     e( 11 - 11) =      9.47976  eV     1   --> G_3            
     e( 12 - 12) =      9.48698  eV     1   --> G_4            
     e( 13 - 13) =     12.88014  eV     1   --> G_3            
     e( 14 - 14) =     12.88054  eV     1   --> G_4            
     e( 15 - 15) =     13.02145  eV     1   --> G_3            
     e( 16 - 16) =     13.02157  eV     1   --> G_4            

 **************************************************************************

 **************************************************************************

                    xk=(   0.80000,   0.20000,   0.20000  )

     Band symmetry, C_s (m)     double point group:

     e(  1 -  1) =     -4.49115  eV     1   --> G_4            
     e(  2 -  2) =     -4.48996  eV     1   --> G_3            
     e(  3 -  3) =      0.10681  eV     1   --> G_3            
     e(  4 -  4) =      0.11383  eV     1   --> G_4            
     e(  5 -  5) =      2.16448  eV     1   --> G_4            
     e(  6 -  6) =      2.17233  eV     1   --> G_3            
     e(  7 -  7) =      3.22575  eV     1   --> G_3            
     e(  8 -  8) =      3.22589  eV     1   --> G_4            
     e(  9 -  9) =      7.43079  eV     1   --> G_4            
     e( 10 - 10) =      7.43266  eV     1   --> G_3            
     e( 11 - 11) =      9.40411  eV     1   --> G_3            
     e( 12 - 12) =      9.41132  eV     1   --> G_4            
     e( 13 - 13) =     12.67770  eV     1   --> G_3            
     e( 14 - 14) =     12.67783  eV     1   --> G_4            
     e( 15 - 16) =     12.88521  eV     2   --> G_3            
     e( 15 - 16) =     12.88521  eV     2   --> G_4            

 **************************************************************************

 **************************************************************************

                    xk=(   0.76667,   0.19167,   0.19167  )

     Band symmetry, C_s (m)     double point group:

     e(  1 -  1) =     -4.58864  eV     1   --> G_4            
     e(  2 -  2) =     -4.58761  eV     1   --> G_3            
     e(  3 -  3) =      0.20697  eV     1   --> G_3            
     e(  4 -  4) =      0.21334  eV     1   --> G_4            
     e(  5 -  5) =      2.31570  eV     1   --> G_4            
     e(  6 -  6) =      2.32307  eV     1   --> G_3            
     e(  7 -  7) =      3.25264  eV     1   --> G_3            
     e(  8 -  8) =      3.25279  eV     1   --> G_4            
     e(  9 -  9) =      7.48464  eV     1   --> G_4            
     e( 10 - 10) =      7.48659  eV     1   --> G_3            
     e( 11 - 11) =      9.34383  eV     1   --> G_3            
     e( 12 - 12) =      9.35105  eV     1   --> G_4            
     e( 13 - 14) =     12.47627  eV     2   --> G_3            
     e( 13 - 14) =     12.47627  eV     2   --> G_4            
     e( 15 - 16) =     12.74797  eV     2   --> G_3            
     e( 15 - 16) =     12.74797  eV     2   --> G_4            

 **************************************************************************

 **************************************************************************

                    xk=(   0.73333,   0.18333,   0.18333  )

     Band symmetry, C_s (m)     double point group:

     e(  1 -  1) =     -4.69646  eV     1   --> G_4            
     e(  2 -  2) =     -4.69558  eV     1   --> G_3            
     e(  3 -  3) =      0.32857  eV     1   --> G_3            
     e(  4 -  4) =      0.33435  eV     1   --> G_4            
     e(  5 -  5) =      2.47310  eV     1   --> G_4            
     e(  6 -  6) =      2.48005  eV     1   --> G_3            
     e(  7 -  7) =      3.28738  eV     1   --> G_3            
     e(  8 -  8) =      3.28755  eV     1   --> G_4            
     e(  9 -  9) =      7.55041  eV     1   --> G_4            
     e( 10 - 10) =      7.55244  eV     1   --> G_3            
     e( 11 - 11) =      9.30004  eV     1   --> G_3            
     e( 12 - 12) =      9.30728  eV     1   --> G_4            
     e( 13 - 13) =     12.27684  eV     1   --> G_4            
     e( 14 - 14) =     12.27708  eV     1   --> G_3            
     e( 15 - 16) =     12.61094  eV     2   --> G_3            
     e( 15 - 16) =     12.61094  eV     2   --> G_4            

 **************************************************************************

 **************************************************************************

                    xk=(   0.70000,   0.17500,   0.17500  )

     Band symmetry, C_s (m)     double point group:

     e(  1 -  1) =     -4.81206  eV     1   --> G_4            
     e(  2 -  2) =     -4.81132  eV     1   --> G_3            
     e(  3 -  3) =      0.47012  eV     1   --> G_3            
     e(  4 -  4) =      0.47539  eV     1   --> G_4            
     e(  5 -  5) =      2.63471  eV     1   --> G_4            
     e(  6 -  6) =      2.64130  eV     1   --> G_3            
     e(  7 -  7) =      3.32990  eV     1   --> G_3            
     e(  8 -  8) =      3.33010  eV     1   --> G_4            
     e(  9 -  9) =      7.62690  eV     1   --> G_4            
     e( 10 - 10) =      7.62899  eV     1   --> G_3            
     e( 11 - 11) =      9.27392  eV     1   --> G_3            
     e( 12 - 12) =      9.28117  eV     1   --> G_4            
     e( 13 - 13) =     12.08029  eV     1   --> G_4            
     e( 14 - 14) =     12.08066  eV     1   --> G_3            
     e( 15 - 16) =     12.47423  eV     2   --> G_3            
     e( 15 - 16) =     12.47423  eV     2   --> G_4            

 **************************************************************************

 **************************************************************************

                    xk=(   0.66667,   0.16667,   0.16667  )

     Band symmetry, C_s (m)     double point group:

     e(  1 -  1) =     -4.93305  eV     1   --> G_4            
     e(  2 -  2) =     -4.93243  eV     1   --> G_3            
     e(  3 -  3) =      0.62998  eV     1   --> G_3            
     e(  4 -  4) =      0.63479  eV     1   --> G_4            
     e(  5 -  5) =      2.79881  eV     1   --> G_4            
     e(  6 -  6) =      2.80509  eV     1   --> G_3            
     e(  7 -  7) =      3.38008  eV     1   --> G_3            
     e(  8 -  8) =      3.38031  eV     1   --> G_4            
     e(  9 -  9) =      7.71250  eV     1   --> G_4            
     e( 10 - 10) =      7.71462  eV     1   --> G_3            
     e( 11 - 11) =      9.26677  eV     1   --> G_3            
     e( 12 - 12) =      9.27403  eV     1   --> G_4            
     e( 13 - 13) =     11.88741  eV     1   --> G_4            
     e( 14 - 14) =     11.88792  eV     1   --> G_3            
     e( 15 - 16) =     12.33733  eV     2   --> G_3            
     e( 15 - 16) =     12.33733  eV     2   --> G_4            

 **************************************************************************

 **************************************************************************

                    xk=(   0.63333,   0.15833,   0.15833  )

     Band symmetry, C_s (m)     double point group:

     e(  1 -  1) =     -5.05722  eV     1   --> G_4            
     e(  2 -  2) =     -5.05671  eV     1   --> G_3            
     e(  3 -  3) =      0.80649  eV     1   --> G_3            
     e(  4 -  4) =      0.81090  eV     1   --> G_4            
     e(  5 -  5) =      2.96384  eV     1   --> G_4            
     e(  6 -  6) =      2.96985  eV     1   --> G_3            
     e(  7 -  7) =      3.43774  eV     1   --> G_3            
     e(  8 -  8) =      3.43801  eV     1   --> G_4            
     e(  9 -  9) =      7.80530  eV     1   --> G_4            
     e( 10 - 10) =      7.80742  eV     1   --> G_3            
     e( 11 - 11) =      9.27958  eV     1   --> G_3            
     e( 12 - 12) =      9.28684  eV     1   --> G_4            
     e( 13 - 13) =     11.69922  eV     1   --> G_4            
     e( 14 - 14) =     11.69986  eV     1   --> G_3            
     e( 15 - 16) =     12.19936  eV     2   --> G_3            
     e( 15 - 16) =     12.19936  eV     2   --> G_4            

 **************************************************************************

 **************************************************************************

                    xk=(   0.60000,   0.15000,   0.15000  )

     Band symmetry, C_s (m)     double point group:

     e(  1 -  1) =     -5.18261  eV     1   --> G_4            
     e(  2 -  2) =     -5.18219  eV     1   --> G_3            
     e(  3 -  3) =      0.99807  eV     1   --> G_3            
     e(  4 -  4) =      1.00212  eV     1   --> G_4            
     e(  5 -  5) =      3.12834  eV     1   --> G_4            
     e(  6 -  6) =      3.13414  eV     1   --> G_3            
     e(  7 -  7) =      3.50264  eV     1   --> G_3            
     e(  8 -  8) =      3.50298  eV     1   --> G_4            
     e(  9 -  9) =      7.90309  eV     1   --> G_4            
     e( 10 - 10) =      7.90516  eV     1   --> G_3            
     e( 11 - 11) =      9.31280  eV     1   --> G_3            
     e( 12 - 12) =      9.32003  eV     1   --> G_4            
     e( 13 - 13) =     11.51701  eV     1   --> G_4            
     e( 14 - 14) =     11.51781  eV     1   --> G_3            
     e( 15 - 16) =     12.05892  eV     2   --> G_3            
     e( 15 - 16) =     12.05892  eV     2   --> G_4            

 **************************************************************************

 **************************************************************************

                    xk=(   0.56667,   0.14167,   0.14167  )

     Band symmetry, C_s (m)     double point group:

     e(  1 -  1) =     -5.30752  eV     1   --> G_4            
     e(  2 -  2) =     -5.30718  eV     1   --> G_3            
     e(  3 -  3) =      1.20325  eV     1   --> G_3            
     e(  4 -  4) =      1.20700  eV     1   --> G_4            
     e(  5 -  5) =      3.29103  eV     1   --> G_4            
     e(  6 -  6) =      3.29665  eV     1   --> G_3            
     e(  7 -  7) =      3.57453  eV     1   --> G_3            
     e(  8 -  8) =      3.57495  eV     1   --> G_4            
     e(  9 -  9) =      8.00380  eV     1   --> G_4            
     e( 10 - 10) =      8.00574  eV     1   --> G_3            
     e( 11 - 11) =      9.36575  eV     1   --> G_3            
     e( 12 - 12) =      9.37291  eV     1   --> G_4            
     e( 13 - 13) =     11.34294  eV     1   --> G_4            
     e( 14 - 14) =     11.34390  eV     1   --> G_3            
     e( 15 - 16) =     11.91465  eV     2   --> G_3            
     e( 15 - 16) =     11.91465  eV     2   --> G_4            

 **************************************************************************

 **************************************************************************

                    xk=(   0.53333,   0.13333,   0.13333  )

     Band symmetry, C_s (m)     double point group:

     e(  1 -  1) =     -5.43047  eV     1   --> G_4            
     e(  2 -  2) =     -5.43020  eV     1   --> G_3            
     e(  3 -  3) =      1.42068  eV     1   --> G_3            
     e(  4 -  4) =      1.42415  eV     1   --> G_4            
     e(  5 -  5) =      3.45065  eV     1   --> G_4            
     e(  6 -  6) =      3.45617  eV     1   --> G_3            
     e(  7 -  7) =      3.65308  eV     1   --> G_3            
     e(  8 -  8) =      3.65364  eV     1   --> G_4            
     e(  9 -  9) =      8.10564  eV     1   --> G_4            
     e( 10 - 10) =      8.10740  eV     1   --> G_3            
     e( 11 - 11) =      9.43551  eV     1   --> G_3            
     e( 12 - 12) =      9.44257  eV     1   --> G_4            
     e( 13 - 13) =     11.18013  eV     1   --> G_4            
[...]
     e(  5 -  5) =      3.75545  eV     1   --> G_4            
     e(  6 -  6) =      3.76126  eV     1   --> G_3            
     e(  7 -  7) =      3.82910  eV     1   --> G_3            
     e(  8 -  8) =      3.83043  eV     1   --> G_4            
     e(  9 -  9) =      8.30891  eV     1   --> G_4            
     e( 10 - 10) =      8.31016  eV     1   --> G_3            
     e( 11 - 11) =      9.59406  eV     1   --> G_3            
     e( 12 - 12) =      9.60073  eV     1   --> G_4            
     e( 13 - 13) =     10.91128  eV     1   --> G_4            
     e( 14 - 14) =     10.91282  eV     1   --> G_3            
     e( 15 - 16) =     11.44592  eV     2   --> G_3            
     e( 15 - 16) =     11.44592  eV     2   --> G_4            

 **************************************************************************

 **************************************************************************

                    xk=(   0.43333,   0.10833,   0.10833  )

     Band symmetry, C_s (m)     double point group:

     e(  1 -  1) =     -5.77611  eV     1   --> G_4            
     e(  2 -  2) =     -5.77597  eV     1   --> G_3            
     e(  3 -  3) =      2.13397  eV     1   --> G_3            
     e(  4 -  4) =      2.13679  eV     1   --> G_4            
     e(  5 -  5) =      3.89485  eV     1   --> G_4            
     e(  6 -  6) =      3.90114  eV     1   --> G_3            
     e(  7 -  7) =      3.92927  eV     1   --> G_3            
     e(  8 -  8) =      3.93132  eV     1   --> G_4            
     e(  9 -  9) =      8.41014  eV     1   --> G_4            
     e( 10 - 10) =      8.41111  eV     1   --> G_3            
     e( 11 - 11) =      9.65300  eV     1   --> G_3            
     e( 12 - 12) =      9.65926  eV     1   --> G_4            
     e( 13 - 13) =     10.82325  eV     1   --> G_4            
     e( 14 - 14) =     10.82480  eV     1   --> G_3            
     e( 15 - 16) =     11.27522  eV     2   --> G_3            
     e( 15 - 16) =     11.27522  eV     2   --> G_4            

 **************************************************************************

 **************************************************************************

                    xk=(   0.40000,   0.10000,   0.10000  )

     Band symmetry, C_s (m)     double point group:

     e(  1 -  1) =     -5.88057  eV     1   --> G_4            
     e(  2 -  2) =     -5.88047  eV     1   --> G_3            
     e(  3 -  3) =      2.38804  eV     1   --> G_3            
     e(  4 -  4) =      2.39069  eV     1   --> G_4            
     e(  5 -  5) =      4.01245  eV     1   --> G_4            
     e(  6 -  6) =      4.01570  eV     1   --> G_3            
     e(  7 -  7) =      4.05161  eV     1   --> G_4            
     e(  8 -  8) =      4.05237  eV     1   --> G_3            
     e(  9 -  9) =      8.51168  eV     1   --> G_4            
     e( 10 - 10) =      8.51237  eV     1   --> G_3            
     e( 11 - 11) =      9.67235  eV     1   --> G_3            
     e( 12 - 12) =      9.67791  eV     1   --> G_4            
     e( 13 - 13) =     10.77576  eV     1   --> G_4            
     e( 14 - 14) =     10.77704  eV     1   --> G_3            
     e( 15 - 16) =     11.09773  eV     2   --> G_3            
     e( 15 - 16) =     11.09773  eV     2   --> G_4            

 **************************************************************************

 **************************************************************************

                    xk=(   0.36667,   0.09167,   0.09167  )

     Band symmetry, C_s (m)     double point group:

     e(  1 -  2) =     -5.97850  eV     2   --> G_3            
     e(  1 -  2) =     -5.97850  eV     2   --> G_4            
     e(  3 -  3) =      2.64811  eV     1   --> G_3            
     e(  4 -  4) =      2.65060  eV     1   --> G_4            
     e(  5 -  5) =      4.11845  eV     1   --> G_4            
     e(  6 -  6) =      4.12015  eV     1   --> G_3            
     e(  7 -  7) =      4.17944  eV     1   --> G_4            
     e(  8 -  8) =      4.18150  eV     1   --> G_3            
     e(  9 -  9) =      8.61391  eV     1   --> G_4            
     e( 10 - 10) =      8.61434  eV     1   --> G_3            
     e( 11 - 11) =      9.64135  eV     1   --> G_3            
     e( 12 - 12) =      9.64595  eV     1   --> G_4            
     e( 13 - 13) =     10.75579  eV     1   --> G_4            
     e( 14 - 14) =     10.75658  eV     1   --> G_3            
     e( 15 - 15) =     10.91501  eV     1   --> G_4            
     e( 16 - 16) =     10.91514  eV     1   --> G_3            

 **************************************************************************

 **************************************************************************

                    xk=(   0.33333,   0.08333,   0.08333  )

     Band symmetry, C_s (m)     double point group:

     e(  1 -  2) =     -6.06936  eV     2   --> G_3            
     e(  1 -  2) =     -6.06936  eV     2   --> G_4            
     e(  3 -  3) =      2.91269  eV     1   --> G_3            
     e(  4 -  4) =      2.91504  eV     1   --> G_4            
     e(  5 -  5) =      4.22376  eV     1   --> G_4            
     e(  6 -  6) =      4.22495  eV     1   --> G_3            
     e(  7 -  7) =      4.30204  eV     1   --> G_4            
     e(  8 -  8) =      4.30437  eV     1   --> G_3            
     e(  9 -  9) =      8.71662  eV     1   --> G_4            
     e( 10 - 10) =      8.71680  eV     1   --> G_3            
     e( 11 - 11) =      9.56538  eV     1   --> G_3            
     e( 12 - 12) =      9.56898  eV     1   --> G_4            
     e( 13 - 13) =     10.72096  eV     1   --> G_3            
     e( 14 - 14) =     10.72243  eV     1   --> G_4            
     e( 15 - 15) =     10.72973  eV     1   --> G_4            
     e( 16 - 16) =     10.73176  eV     1   --> G_3            

 **************************************************************************

 **************************************************************************

                    xk=(   0.30000,   0.07500,   0.07500  )

     Band symmetry, C_s (m)     double point group:

     e(  1 -  2) =     -6.15270  eV     2   --> G_3            
     e(  1 -  2) =     -6.15270  eV     2   --> G_4            
     e(  3 -  3) =      3.17999  eV     1   --> G_3            
     e(  4 -  4) =      3.18219  eV     1   --> G_4            
     e(  5 -  5) =      4.32897  eV     1   --> G_4            
     e(  6 -  6) =      4.32993  eV     1   --> G_3            
     e(  7 -  7) =      4.41684  eV     1   --> G_4            
     e(  8 -  8) =      4.41912  eV     1   --> G_3            
     e(  9 - 10) =      8.81852  eV     2   --> G_3            
     e(  9 - 10) =      8.81852  eV     2   --> G_4            
     e( 11 - 11) =      9.45815  eV     1   --> G_3            
     e( 12 - 12) =      9.46080  eV     1   --> G_4            
     e( 13 - 13) =     10.54355  eV     1   --> G_3            
     e( 14 - 14) =     10.54370  eV     1   --> G_4            
     e( 15 - 15) =     10.63291  eV     1   --> G_4            
     e( 16 - 16) =     10.63347  eV     1   --> G_3            

 **************************************************************************

 **************************************************************************

                    xk=(   0.26667,   0.06667,   0.06667  )

     Band symmetry, C_s (m)     double point group:

     e(  1 -  2) =     -6.22814  eV     2   --> G_3            
     e(  1 -  2) =     -6.22814  eV     2   --> G_4            
     e(  3 -  3) =      3.44778  eV     1   --> G_3            
     e(  4 -  4) =      3.44985  eV     1   --> G_4            
     e(  5 -  5) =      4.43280  eV     1   --> G_4            
     e(  6 -  6) =      4.43365  eV     1   --> G_3            
     e(  7 -  7) =      4.52281  eV     1   --> G_4            
     e(  8 -  8) =      4.52492  eV     1   --> G_3            
     e(  9 -  9) =      8.91525  eV     1   --> G_3            
     e( 10 - 10) =      8.91576  eV     1   --> G_4            
     e( 11 - 11) =      9.33344  eV     1   --> G_3            
     e( 12 - 12) =      9.33508  eV     1   --> G_4            
     e( 13 - 14) =     10.36164  eV     2   --> G_3            
     e( 13 - 14) =     10.36164  eV     2   --> G_4            
     e( 15 - 15) =     10.47812  eV     1   --> G_4            
     e( 16 - 16) =     10.47858  eV     1   --> G_3            

 **************************************************************************

 **************************************************************************

                    xk=(   0.23333,   0.05833,   0.05833  )

     Band symmetry, C_s (m)     double point group:

     e(  1 -  2) =     -6.29536  eV     2   --> G_3            
     e(  1 -  2) =     -6.29536  eV     2   --> G_4            
     e(  3 -  3) =      3.71318  eV     1   --> G_3            
     e(  4 -  4) =      3.71510  eV     1   --> G_4            
     e(  5 -  5) =      4.53342  eV     1   --> G_4            
     e(  6 -  6) =      4.53422  eV     1   --> G_3            
     e(  7 -  7) =      4.61920  eV     1   --> G_4            
     e(  8 -  8) =      4.62105  eV     1   --> G_3            
     e(  9 -  9) =      8.98719  eV     1   --> G_3            
     e( 10 - 10) =      8.98866  eV     1   --> G_4            
     e( 11 - 11) =      9.21529  eV     1   --> G_3            
     e( 12 - 12) =      9.21544  eV     1   --> G_4            
     e( 13 - 14) =     10.18706  eV     2   --> G_3            
     e( 13 - 14) =     10.18706  eV     2   --> G_4            
     e( 15 - 15) =     10.28638  eV     1   --> G_4            
     e( 16 - 16) =     10.28679  eV     1   --> G_3            

 **************************************************************************

 **************************************************************************

                    xk=(   0.20000,   0.05000,   0.05000  )

     Band symmetry, C_s (m)     double point group:

     e(  1 -  2) =     -6.35411  eV     2   --> G_3            
     e(  1 -  2) =     -6.35411  eV     2   --> G_4            
     e(  3 -  3) =      3.97229  eV     1   --> G_3            
     e(  4 -  4) =      3.97406  eV     1   --> G_4            
     e(  5 -  5) =      4.62855  eV     1   --> G_4            
     e(  6 -  6) =      4.62935  eV     1   --> G_3            
     e(  7 -  7) =      4.70535  eV     1   --> G_4            
     e(  8 -  8) =      4.70688  eV     1   --> G_3            
     e(  9 -  9) =      8.94435  eV     1   --> G_3            
     e( 10 - 10) =      8.94638  eV     1   --> G_4            
     e( 11 - 11) =      9.19362  eV     1   --> G_4            
     e( 12 - 12) =      9.19455  eV     1   --> G_3            
     e( 13 - 14) =     10.02376  eV     2   --> G_3            
     e( 13 - 14) =     10.02376  eV     2   --> G_4            
     e( 15 - 15) =     10.09012  eV     1   --> G_4            
     e( 16 - 16) =     10.09043  eV     1   --> G_3            

 **************************************************************************

 **************************************************************************

                    xk=(   0.16667,   0.04167,   0.04167  )

     Band symmetry, C_s (m)     double point group:

     e(  1 -  2) =     -6.40415  eV     2   --> G_3            
     e(  1 -  2) =     -6.40415  eV     2   --> G_4            
     e(  3 -  3) =      4.21981  eV     1   --> G_3            
     e(  4 -  4) =      4.22140  eV     1   --> G_4            
     e(  5 -  5) =      4.71558  eV     1   --> G_4            
     e(  6 -  6) =      4.71641  eV     1   --> G_3            
     e(  7 -  7) =      4.78068  eV     1   --> G_4            
     e(  8 -  8) =      4.78185  eV     1   --> G_3            
     e(  9 -  9) =      8.79651  eV     1   --> G_3            
     e( 10 - 10) =      8.79777  eV     1   --> G_4            
     e( 11 - 11) =      9.26169  eV     1   --> G_4            
     e( 12 - 12) =      9.26229  eV     1   --> G_3            
     e( 13 - 13) =      9.87553  eV     1   --> G_3            
     e( 14 - 14) =      9.87564  eV     1   --> G_4            
     e( 15 - 15) =      9.91194  eV     1   --> G_4            
     e( 16 - 16) =      9.91215  eV     1   --> G_3            

 **************************************************************************

 **************************************************************************

                    xk=(   0.13333,   0.03333,   0.03333  )

     Band symmetry, C_s (m)     double point group:

     e(  1 -  2) =     -6.44532  eV     2   --> G_3            
     e(  1 -  2) =     -6.44532  eV     2   --> G_4            
     e(  3 -  3) =      4.44832  eV     1   --> G_3            
     e(  4 -  4) =      4.44971  eV     1   --> G_4            
     e(  5 -  5) =      4.79170  eV     1   --> G_4            
     e(  6 -  6) =      4.79257  eV     1   --> G_3            
     e(  7 -  7) =      4.84469  eV     1   --> G_4            
     e(  8 -  8) =      4.84546  eV     1   --> G_3            
     e(  9 -  9) =      8.62763  eV     1   --> G_3            
     e( 10 - 10) =      8.62832  eV     1   --> G_4            
     e( 11 - 11) =      9.33831  eV     1   --> G_4            
     e( 12 - 12) =      9.33870  eV     1   --> G_3            
     e( 13 - 13) =      9.74561  eV     1   --> G_3            
     e( 14 - 14) =      9.74576  eV     1   --> G_4            
     e( 15 - 15) =      9.76485  eV     1   --> G_4            
     e( 16 - 16) =      9.76499  eV     1   --> G_3            

 **************************************************************************

 **************************************************************************

                    xk=(   0.10000,   0.02500,   0.02500  )

     Band symmetry, C_s (m)     double point group:

     e(  1 -  2) =     -6.47748  eV     2   --> G_3            
     e(  1 -  2) =     -6.47748  eV     2   --> G_4            
     e(  3 -  3) =      4.64744  eV     1   --> G_3            
     e(  4 -  4) =      4.64859  eV     1   --> G_4            
     e(  5 -  5) =      4.85431  eV     1   --> G_4            
     e(  6 -  6) =      4.85519  eV     1   --> G_3            
     e(  7 -  7) =      4.89691  eV     1   --> G_4            
     e(  8 -  8) =      4.89730  eV     1   --> G_3            
     e(  9 -  9) =      8.46451  eV     1   --> G_3            
     e( 10 - 10) =      8.46482  eV     1   --> G_4            
     e( 11 - 11) =      9.40564  eV     1   --> G_4            
     e( 12 - 12) =      9.40590  eV     1   --> G_3            
     e( 13 - 13) =      9.63782  eV     1   --> G_3            
     e( 14 - 14) =      9.63799  eV     1   --> G_4            
     e( 15 - 16) =      9.65344  eV     2   --> G_3            
     e( 15 - 16) =      9.65344  eV     2   --> G_4            

 **************************************************************************

 **************************************************************************

                    xk=(   0.06667,   0.01667,   0.01667  )

     Band symmetry, C_s (m)     double point group:

     e(  1 -  2) =     -6.50053  eV     2   --> G_3            
     e(  1 -  2) =     -6.50053  eV     2   --> G_4            
     e(  3 -  3) =      4.80240  eV     1   --> G_3            
     e(  4 -  4) =      4.80320  eV     1   --> G_4            
     e(  5 -  5) =      4.90312  eV     1   --> G_4            
     e(  6 -  6) =      4.90385  eV     1   --> G_3            
     e(  7 -  7) =      4.93647  eV     1   --> G_4            
     e(  8 -  8) =      4.93659  eV     1   --> G_3            
     e(  9 - 10) =      8.32692  eV     2   --> G_3            
     e(  9 - 10) =      8.32692  eV     2   --> G_4            
     e( 11 - 11) =      9.45697  eV     1   --> G_4            
     e( 12 - 12) =      9.45714  eV     1   --> G_3            
     e( 13 - 13) =      9.55921  eV     1   --> G_3            
     e( 14 - 14) =      9.55934  eV     1   --> G_4            
     e( 15 - 16) =      9.57479  eV     2   --> G_3            
     e( 15 - 16) =      9.57479  eV     2   --> G_4            

 **************************************************************************

 **************************************************************************

                    xk=(   0.03333,   0.00833,   0.00833  )

     Band symmetry, C_s (m)     double point group:

     e(  1 -  2) =     -6.51438  eV     2   --> G_3            
     e(  1 -  2) =     -6.51438  eV     2   --> G_4            
     e(  3 -  3) =      4.89031  eV     1   --> G_3            
     e(  4 -  4) =      4.89051  eV     1   --> G_4            
     e(  5 -  5) =      4.94598  eV     1   --> G_4            
     e(  6 -  6) =      4.94618  eV     1   --> G_3            
     e(  7 -  8) =      4.96159  eV     2   --> G_3            
     e(  7 -  8) =      4.96159  eV     2   --> G_4            
     e(  9 - 10) =      8.23406  eV     2   --> G_3            
     e(  9 - 10) =      8.23406  eV     2   --> G_4            
     e( 11 - 12) =      9.48506  eV     2   --> G_3            
     e( 11 - 12) =      9.48506  eV     2   --> G_4            
     e( 13 - 14) =      9.51614  eV     2   --> G_3            
     e( 13 - 14) =      9.51614  eV     2   --> G_4            
     e( 15 - 16) =      9.52745  eV     2   --> G_3            
     e( 15 - 16) =      9.52745  eV     2   --> G_4            

 **************************************************************************

 **************************************************************************

                    xk=(   0.00000,   0.00000,   0.00000  )

     double point group T_d (-43m) 
     there are  8 classes and  3 irreducible representations
     the character table:

       E     -E    8C3   -8C3   3C2  6S4   -6S4  6s_d 
                               -3C2              -6s_d
G_6    2.00 -2.00  1.00 -1.00  0.00  1.41 -1.41  0.00
G_7    2.00 -2.00  1.00 -1.00  0.00 -1.41  1.41  0.00
G_8    4.00 -4.00 -1.00  1.00  0.00  0.00  0.00  0.00

     the symmetry operations in each class and the name of the first element:

     E             1
                                                                 
     -E           -1
                                                                 
     8C3           5    7    8    6   12    9   10   11
                                                                 
     -8C3         -5   -7   -8   -6  -12   -9  -10  -11
                                                                 
      3C2 -3C2     2   -2    3   -3    4   -4
                                                                 
     6S4          15   16   20   19   23   24
                                                                 
     -6S4        -15  -16  -20  -19  -23  -24
                                                                 
     6s_d -6s_d   13  -13  -14   14   17  -17  -18   18   21  -21   22  -22
                                                                 

     Band symmetry, T_d (-43m)  double point group:

     e(  1 -  2) =     -6.51901  eV     2   --> G_6  P_6       
     e(  3 -  4) =      4.91119  eV     2   --> G_7  P_7       
     e(  5 -  8) =      4.97026  eV     4   --> G_8  P_8       
     e(  9 - 10) =      8.20112  eV     2   --> G_6  P_6       
     e( 11 - 12) =      9.48485  eV     2   --> G_7  P_7       
     e( 13 - 16) =      9.51164  eV     4   --> G_8  P_8       

 **************************************************************************

     BANDS        :     22.08s CPU     25.83s WALL


   This run was terminated on:  17:46:42  22Mar2024            

=------------------------------------------------------------------------------=
   JOB DONE.
=------------------------------------------------------------------------------=
