
     Program BANDS v.6.7MaX starts on  1Apr2024 at 15:19:14 

     This program is part of the open-source Quantum ESPRESSO suite
     for quantum simulation of materials; please cite
         "P. Giannozzi et al., J. Phys.:Condens. Matter 21 395502 (2009);
         "P. Giannozzi et al., J. Phys.:Condens. Matter 29 465901 (2017);
          URL http://www.quantum-espresso.org", 
     in publications or presentations arising from this work. More details at
     http://www.quantum-espresso.org/quote

     Parallel version (MPI), running on     4 processors

     MPI processes distributed on     1 nodes
     R & G space division:  proc/nbgrp/npool/nimage =       4

     Reading xml data from directory:

     ../tmp/alp.save/
     file Al.rel-pbe-n-kjpaw_psl.1.0.0.UPF: wavefunction(s)  3S 3P 3P renormalized
     file P.rel-pbe-n-kjpaw_psl.1.0.0.UPF: wavefunction(s)  3S 3P 3P renormalized

     IMPORTANT: XC functional enforced from input :
     Exchange-correlation= PBE
                           (   1   4   3   4   0   0   0)
     Any further DFT definition will be discarded
     Please, verify this is what you really want


     Parallelization info
     --------------------
     sticks:   dense  smooth     PW     G-vecs:    dense   smooth      PW
     Min         219     109     34                 4315     1545     266
     Max         220     110     35                 4316     1546     267
     Sum         877     439    139                17261     6183    1067

     Reading collected, re-writing distributed wavefunctions
     high-symmetry point:  0.5000 0.5000 0.5000   x coordinate   0.0000
     high-symmetry point:  0.0000 0.0000 0.0000   x coordinate   0.8660
     high-symmetry point:  1.0000 0.0000 0.0000   x coordinate   1.8660
     high-symmetry point:  1.0000 0.2500 0.2500   x coordinate   2.2196
     high-symmetry point:  0.0000 0.0000 0.0000   x coordinate   3.2802

     Plottable bands (eV) written to file alp.bands.gnu
     Bands written to file alp.bands

 **************************************************************************

                    xk=(   0.50000,   0.50000,   0.50000  )

     double point group C_3v (3m)  
     there are  6 classes and  3 irreducible representations
     the character table:

       E     -E    2C3   -2C3  3s_v  -3s_v
                                          
G_4    2.00 -2.00  1.00 -1.00  0.00  0.00
G_5    1.00 -1.00 -1.00  1.00  0.00  0.00
G_6    1.00 -1.00 -1.00  1.00  0.00  0.00

     imaginary part

       E     -E    2C3   -2C3  3s_v  -3s_v
                                          
G_4    0.00  0.00  0.00  0.00  0.00  0.00
G_5    0.00  0.00  0.00  0.00  1.00 -1.00
G_6    0.00  0.00  0.00  0.00 -1.00  1.00

     the symmetry operations in each class and the name of the first element:

     E             1
                                                                 
     -E           -1
                                                                 
     2C3           2    3
                                                                 
     -2C3         -2   -3
                                                                 
     3s_v          4    5   -6
                                                                 
     3s_v          6   -4   -5
                                                                 

     Band symmetry, C_3v (3m)   double point group:

     e(  1 -  2) =     -4.85551  eV     2   --> G_4   L_6      
     e(  3 -  4) =     -0.54849  eV     2   --> G_4   L_6      
     e(  5 -  6) =      4.17227  eV     2   --> G_4   L_6      
     e(  7 -  8) =      4.20985  eV     2   --> G_5   L_4      
     e(  7 -  8) =      4.20985  eV     2   --> G_6   L_5      
     e(  9 - 10) =      7.74354  eV     2   --> G_4   L_6      
     e( 11 - 12) =      9.76027  eV     2   --> G_4   L_6      
     e( 13 - 14) =      9.77125  eV     2   --> G_5   L_4      
     e( 13 - 14) =      9.77125  eV     2   --> G_6   L_5      
     e( 15 - 16) =     13.21523  eV     2   --> G_4   L_6      

 **************************************************************************

 **************************************************************************

                    xk=(   0.47500,   0.47500,   0.47500  )

     Band symmetry, C_3v (3m)   double point group:

     e(  1 -  2) =     -4.87283  eV     2   --> G_4   L_6      
     e(  3 -  4) =     -0.51743  eV     2   --> G_4   L_6      
     e(  5 -  6) =      4.17573  eV     2   --> G_4   L_6      
     e(  7 -  8) =      4.21331  eV     2   --> G_5   L_4      
     e(  7 -  8) =      4.21331  eV     2   --> G_6   L_5      
     e(  9 - 10) =      7.74905  eV     2   --> G_4   L_6      
     e( 11 - 12) =      9.76648  eV     2   --> G_4   L_6      
     e( 13 - 14) =      9.77750  eV     2   --> G_5   L_4      
     e( 13 - 14) =      9.77750  eV     2   --> G_6   L_5      
     e( 15 - 16) =     13.21483  eV     2   --> G_4   L_6      

 **************************************************************************

 **************************************************************************

                    xk=(   0.45000,   0.45000,   0.45000  )

     Band symmetry, C_3v (3m)   double point group:

     e(  1 -  2) =     -4.92315  eV     2   --> G_4   L_6      
     e(  3 -  4) =     -0.42597  eV     2   --> G_4   L_6      
     e(  5 -  6) =      4.18608  eV     2   --> G_4   L_6      
     e(  7 -  8) =      4.22366  eV     2   --> G_5   L_4      
     e(  7 -  8) =      4.22366  eV     2   --> G_6   L_5      
     e(  9 - 10) =      7.76543  eV     2   --> G_4   L_6      
     e( 11 - 12) =      9.78485  eV     2   --> G_4   L_6      
     e( 13 - 14) =      9.79601  eV     2   --> G_5   L_4      
     e( 13 - 14) =      9.79601  eV     2   --> G_6   L_5      
     e( 15 - 16) =     13.21172  eV     2   --> G_4   L_6      

 **************************************************************************

 **************************************************************************

                    xk=(   0.42500,   0.42500,   0.42500  )

     Band symmetry, C_3v (3m)   double point group:

     e(  1 -  2) =     -5.00201  eV     2   --> G_4   L_6      
     e(  3 -  4) =     -0.27869  eV     2   --> G_4   L_6      
     e(  5 -  6) =      4.20323  eV     2   --> G_4   L_6      
     e(  7 -  8) =      4.24082  eV     2   --> G_5   L_4      
     e(  7 -  8) =      4.24082  eV     2   --> G_6   L_5      
     e(  9 - 10) =      7.79271  eV     2   --> G_4   L_6      
     e( 11 - 12) =      9.81442  eV     2   --> G_4   L_6      
     e( 13 - 14) =      9.82583  eV     2   --> G_5   L_4      
     e( 13 - 14) =      9.82583  eV     2   --> G_6   L_5      
     e( 15 - 16) =     13.19990  eV     2   --> G_4   L_6      

 **************************************************************************

 **************************************************************************

                    xk=(   0.40000,   0.40000,   0.40000  )

     Band symmetry, C_3v (3m)   double point group:

     e(  1 -  2) =     -5.10333  eV     2   --> G_4   L_6      
     e(  3 -  4) =     -0.08195  eV     2   --> G_4   L_6      
     e(  5 -  6) =      4.22705  eV     2   --> G_4   L_6      
     e(  7 -  8) =      4.26465  eV     2   --> G_5   L_4      
     e(  7 -  8) =      4.26465  eV     2   --> G_6   L_5      
     e(  9 - 10) =      7.83067  eV     2   --> G_4   L_6      
     e( 11 - 12) =      9.85364  eV     2   --> G_4   L_6      
     e( 13 - 14) =      9.86541  eV     2   --> G_5   L_4      
     e( 13 - 14) =      9.86541  eV     2   --> G_6   L_5      
     e( 15 - 16) =     13.16830  eV     2   --> G_4   L_6      

 **************************************************************************

 **************************************************************************

                    xk=(   0.37500,   0.37500,   0.37500  )

     Band symmetry, C_3v (3m)   double point group:

     e(  1 -  2) =     -5.22063  eV     2   --> G_4   L_6      
     e(  3 -  4) =      0.15741  eV     2   --> G_4   L_6      
     e(  5 -  6) =      4.25733  eV     2   --> G_4   L_6      
     e(  7 -  8) =      4.29495  eV     2   --> G_5   L_4      
     e(  7 -  8) =      4.29495  eV     2   --> G_6   L_5      
     e(  9 - 10) =      7.87905  eV     2   --> G_4   L_6      
     e( 11 - 12) =      9.90014  eV     2   --> G_4   L_6      
     e( 13 - 13) =      9.91238  eV     1   -->   ?
     e( 14 - 14) =      9.91249  eV     1   -->   ?
     e( 15 - 16) =     13.10029  eV     2   --> G_4   L_6      

 **************************************************************************

 **************************************************************************

                    xk=(   0.35000,   0.35000,   0.35000  )

     Band symmetry, C_3v (3m)   double point group:

     e(  1 -  2) =     -5.34788  eV     2   --> G_4   L_6      
     e(  3 -  4) =      0.43283  eV     2   --> G_4   L_6      
     e(  5 -  6) =      4.29378  eV     2   --> G_4   L_6      
     e(  7 -  8) =      4.33143  eV     2   --> G_5   L_4      
     e(  7 -  8) =      4.33143  eV     2   --> G_6   L_5      
     e(  9 - 10) =      7.93737  eV     2   --> G_4   L_6      
     e( 11 - 12) =      9.95045  eV     2   --> G_4   L_6      
     e( 13 - 13) =      9.96331  eV     1   -->   ?
     e( 14 - 14) =      9.96344  eV     1   -->   ?
     e( 15 - 16) =     12.97642  eV     2   --> G_4   L_6      

 **************************************************************************

 **************************************************************************

                    xk=(   0.32500,   0.32500,   0.32500  )

     Band symmetry, C_3v (3m)   double point group:

     e(  1 -  2) =     -5.47991  eV     2   --> G_4   L_6      
     e(  3 -  4) =      0.73848  eV     2   --> G_4   L_6      
     e(  5 -  6) =      4.33602  eV     2   --> G_4   L_6      
     e(  7 -  8) =      4.37370  eV     2   --> G_5   L_4      
     e(  7 -  8) =      4.37370  eV     2   --> G_6   L_5      
     e(  9 - 10) =      8.00511  eV     2   --> G_4   L_6      
     e( 11 - 12) =     10.00002  eV     2   --> G_4   L_6      
     e( 13 - 13) =     10.01364  eV     1   -->   ?
     e( 14 - 14) =     10.01380  eV     1   -->   ?
     e( 15 - 16) =     12.78285  eV     2   --> G_4   L_6      

 **************************************************************************

 **************************************************************************

                    xk=(   0.30000,   0.30000,   0.30000  )

     Band symmetry, C_3v (3m)   double point group:

     e(  1 -  2) =     -5.61249  eV     2   --> G_4   L_6      
     e(  3 -  4) =      1.06928  eV     2   --> G_4   L_6      
     e(  5 -  6) =      4.38353  eV     2   --> G_4   L_6      
     e(  7 -  8) =      4.42126  eV     2   --> G_5   L_4      
     e(  7 -  8) =      4.42126  eV     2   --> G_6   L_5      
     e(  9 - 10) =      8.08140  eV     2   --> G_4   L_6      
     e( 11 - 12) =     10.04299  eV     2   --> G_4   L_6      
     e( 13 - 13) =     10.05749  eV     1   -->   ?
     e( 14 - 14) =     10.05768  eV     1   -->   ?
     e( 15 - 16) =     12.52019  eV     2   --> G_4   L_6      

 **************************************************************************

 **************************************************************************

                    xk=(   0.27500,   0.27500,   0.27500  )

     Band symmetry, C_3v (3m)   double point group:

     e(  1 -  2) =     -5.74225  eV     2   --> G_4   L_6      
     e(  3 -  4) =      1.42076  eV     2   --> G_4   L_6      
     e(  5 -  6) =      4.43565  eV     2   --> G_4   L_6      
     e(  7 -  8) =      4.47346  eV     2   --> G_5   L_4      
     e(  7 -  8) =      4.47346  eV     2   --> G_6   L_5      
     e(  9 - 10) =      8.16504  eV     2   --> G_4   L_6      
     e( 11 - 12) =     10.07247  eV     2   --> G_4   L_6      
     e( 13 - 13) =     10.08794  eV     1   -->   ?
     e( 14 - 14) =     10.08815  eV     1   -->   ?
     e( 15 - 16) =     12.20214  eV     2   --> G_4   L_6      

 **************************************************************************

 **************************************************************************

                    xk=(   0.25000,   0.25000,   0.25000  )

     Band symmetry, C_3v (3m)   double point group:

     e(  1 -  2) =     -5.86655  eV     2   --> G_4   L_6      
     e(  3 -  4) =      1.78887  eV     2   --> G_4   L_6      
     e(  5 -  6) =      4.49158  eV     2   --> G_4   L_6      
     e(  7 -  8) =      4.52947  eV     2   --> G_5   L_4      
     e(  7 -  8) =      4.52947  eV     2   --> G_6   L_5      
     e(  9 - 10) =      8.25427  eV     2   --> G_4   L_6      
     e( 11 - 12) =     10.08143  eV     2   --> G_4   L_6      
     e( 13 - 13) =     10.09788  eV     1   -->   ?
     e( 14 - 14) =     10.09811  eV     1   -->   ?
     e( 15 - 16) =     11.84665  eV     2   --> G_4   L_6      

 **************************************************************************

 **************************************************************************

                    xk=(   0.22500,   0.22500,   0.22500  )

     Band symmetry, C_3v (3m)   double point group:

     e(  1 -  2) =     -5.98334  eV     2   --> G_4   L_6      
     e(  3 -  4) =      2.16974  eV     2   --> G_4   L_6      
     e(  5 -  6) =      4.55027  eV     2   --> G_4   L_6      
     e(  7 -  8) =      4.58826  eV     2   --> G_5   L_4      
     e(  7 -  8) =      4.58826  eV     2   --> G_6   L_5      
     e(  9 - 10) =      8.34658  eV     2   --> G_4   L_6      
     e( 11 - 12) =     10.06461  eV     2   --> G_4   L_6      
     e( 13 - 13) =     10.08193  eV     1   -->   ?
     e( 14 - 14) =     10.08216  eV     1   -->   ?
     e( 15 - 16) =     11.46974  eV     2   --> G_4   L_6      

 **************************************************************************

 **************************************************************************

                    xk=(   0.20000,   0.20000,   0.20000  )

     Band symmetry, C_3v (3m)   double point group:

     e(  1 -  2) =     -6.09099  eV     2   --> G_4   L_6      
     e(  3 -  4) =      2.55935  eV     2   --> G_4   L_6      
     e(  5 -  6) =      4.61049  eV     2   --> G_4   L_6      
     e(  7 -  8) =      4.64859  eV     2   --> G_5   L_4      
     e(  7 -  8) =      4.64859  eV     2   --> G_6   L_5      
     e(  9 - 10) =      8.43820  eV     2   --> G_4   L_6      
     e( 11 - 12) =     10.02031  eV     2   --> G_4   L_6      
     e( 13 - 13) =     10.03828  eV     1   -->   ?
     e( 14 - 14) =     10.03851  eV     1   -->   ?
     e( 15 - 16) =     11.08457  eV     2   --> G_4   L_6      

 **************************************************************************

 **************************************************************************

                    xk=(   0.17500,   0.17500,   0.17500  )

     Band symmetry, C_3v (3m)   double point group:

     e(  1 -  2) =     -6.18827  eV     2   --> G_4   L_6      
     e(  3 -  4) =      2.95316  eV     2   --> G_4   L_6      
     e(  5 -  6) =      4.67075  eV     2   --> G_4   L_6      
     e(  7 -  8) =      4.70897  eV     2   --> G_5   L_4      
     e(  7 -  8) =      4.70897  eV     2   --> G_6   L_5      
     e(  9 - 10) =      8.52310  eV     2   --> G_4   L_6      
     e( 11 - 12) =      9.95195  eV     2   --> G_4   L_6      
     e( 13 - 13) =      9.97030  eV     1   -->   ?
     e( 14 - 14) =      9.97051  eV     1   -->   ?
     e( 15 - 16) =     10.70337  eV     2   --> G_4   L_6      

 **************************************************************************

 **************************************************************************

                    xk=(   0.15000,   0.15000,   0.15000  )

     Band symmetry, C_3v (3m)   double point group:

     e(  1 -  2) =     -6.27418  eV     2   --> G_4   L_6      
     e(  3 -  4) =      3.34562  eV     2   --> G_4   L_6      
     e(  5 -  6) =      4.72931  eV     2   --> G_4   L_6      
     e(  7 -  8) =      4.76762  eV     2   --> G_5   L_4      
     e(  7 -  8) =      4.76762  eV     2   --> G_6   L_5      
     e(  9 - 10) =      8.59153  eV     2   --> G_4   L_6      
     e( 11 - 12) =      9.86689  eV     2   --> G_4   L_6      
     e( 13 - 13) =      9.88538  eV     1   -->   ?
     e( 14 - 14) =      9.88557  eV     1   -->   ?
     e( 15 - 16) =     10.34059  eV     2   --> G_4   L_6      

 **************************************************************************

 **************************************************************************

                    xk=(   0.12500,   0.12500,   0.12500  )

     Band symmetry, C_3v (3m)   double point group:

     e(  1 -  2) =     -6.34797  eV     2   --> G_4   L_6      
     e(  3 -  4) =      3.72938  eV     2   --> G_4   L_6      
     e(  5 -  6) =      4.78423  eV     2   --> G_4   L_6      
     e(  7 -  8) =      4.82258  eV     2   --> G_5   L_4      
     e(  7 -  8) =      4.82258  eV     2   --> G_6   L_5      
     e(  9 - 10) =      8.62703  eV     2   --> G_4   L_6      
     e( 11 - 12) =      9.77471  eV     2   --> G_4   L_6      
     e( 13 - 13) =      9.79322  eV     1   -->   ?
     e( 14 - 14) =      9.79338  eV     1   -->   ?
     e( 15 - 16) =     10.01720  eV     2   --> G_4   L_6      

 **************************************************************************

 **************************************************************************

                    xk=(   0.10000,   0.10000,   0.10000  )

     Band symmetry, C_3v (3m)   double point group:

     e(  1 -  2) =     -6.40905  eV     2   --> G_4   L_6      
     e(  3 -  4) =      4.09396  eV     2   --> G_4   L_6      
     e(  5 -  6) =      4.83349  eV     2   --> G_4   L_6      
     e(  7 -  8) =      4.87174  eV     2   --> G_5   L_4      
     e(  7 -  8) =      4.87174  eV     2   --> G_6   L_5      
     e(  9 - 10) =      8.60554  eV     2   --> G_4   L_6      
     e( 11 - 12) =      9.68448  eV     2   --> G_4   L_6      
     e( 13 - 13) =      9.70346  eV     1   -->   ?
     e( 14 - 14) =      9.70359  eV     1   -->   ?
     e( 15 - 16) =      9.76389  eV     2   --> G_4   L_6      

 **************************************************************************

 **************************************************************************

                    xk=(   0.07500,   0.07500,   0.07500  )

     Band symmetry, C_3v (3m)   double point group:

     e(  1 -  2) =     -6.45697  eV     2   --> G_4   L_6      
     e(  3 -  4) =      4.42376  eV     2   --> G_4   L_6      
     e(  5 -  6) =      4.87515  eV     2   --> G_4   L_6      
     e(  7 -  8) =      4.91294  eV     2   --> G_5   L_4      
     e(  7 -  8) =      4.91294  eV     2   --> G_6   L_5      
     e(  9 - 10) =      8.51141  eV     2   --> G_4   L_6      
     e( 11 - 12) =      9.59574  eV     2   --> G_4   L_6      
     e( 13 - 14) =      9.61558  eV     2   --> G_4   L_6      
     e( 15 - 16) =      9.62468  eV     2   --> G_5   L_4      
     e( 15 - 16) =      9.62468  eV     2   --> G_6   L_5      

 **************************************************************************

 **************************************************************************

                    xk=(   0.05000,   0.05000,   0.05000  )

     Band symmetry, C_3v (3m)   double point group:

     e(  1 -  2) =     -6.49143  eV     2   --> G_4   L_6      
     e(  3 -  4) =      4.69512  eV     2   --> G_4   L_6      
     e(  5 -  6) =      4.90810  eV     2   --> G_4   L_6      
     e(  7 -  8) =      4.94408  eV     2   --> G_5   L_4      
     e(  7 -  8) =      4.94408  eV     2   --> G_6   L_5      
     e(  9 - 10) =      8.37161  eV     2   --> G_4   L_6      
     e( 11 - 12) =      9.52545  eV     2   --> G_4   L_6      
     e( 13 - 14) =      9.55214  eV     2   --> G_4   L_6      
     e( 15 - 16) =      9.56347  eV     2   --> G_5   L_4      
     e( 15 - 16) =      9.56347  eV     2   --> G_6   L_5      

 **************************************************************************

 **************************************************************************

                    xk=(   0.02500,   0.02500,   0.02500  )

     Band symmetry, C_3v (3m)   double point group:

     e(  1 -  2) =     -6.51219  eV     2   --> G_4   L_6      
     e(  3 -  4) =      4.87004  eV     2   --> G_4   L_6      
     e(  5 -  6) =      4.93805  eV     2   --> G_4   L_6      
     e(  7 -  8) =      4.96353  eV     2   --> G_5   L_4      
     e(  7 -  8) =      4.96353  eV     2   --> G_6   L_5      
     e(  9 - 10) =      8.24927  eV     2   --> G_4   L_6      
     e( 11 - 12) =      9.49492  eV     2   --> G_4   L_6      
     e( 13 - 14) =      9.51969  eV     2   --> G_4   L_6      
     e( 15 - 16) =      9.52481  eV     2   --> G_5   L_4      
     e( 15 - 16) =      9.52481  eV     2   --> G_6   L_5      

 **************************************************************************

 **************************************************************************

                    xk=(   0.00000,   0.00000,   0.00000  )

     double point group T_d (-43m) 
     there are  8 classes and  3 irreducible representations
     the character table:

       E     -E    8C3   -8C3   3C2  6S4   -6S4  6s_d 
                               -3C2              -6s_d
G_6    2.00 -2.00  1.00 -1.00  0.00  1.41 -1.41  0.00
G_7    2.00 -2.00  1.00 -1.00  0.00 -1.41  1.41  0.00
G_8    4.00 -4.00 -1.00  1.00  0.00  0.00  0.00  0.00

     the symmetry operations in each class and the name of the first element:

     E             1
                                                                 
     -E           -1
                                                                 
     8C3           5    7    8    6   12    9   10   11
                                                                 
     -8C3         -5   -7   -8   -6  -12   -9  -10  -11
                                                                 
      3C2 -3C2     2   -2    3   -3    4   -4
                                                                 
     6S4          15   16   20   19   23   24
                                                                 
     -6S4        -15  -16  -20  -19  -23  -24
                                                                 
     6s_d -6s_d   13  -13  -14   14   17  -17  -18   18   21  -21   22  -22
                                                                 

     Band symmetry, T_d (-43m)  double point group:

     e(  1 -  2) =     -6.51912  eV     2   --> G_6  P_6       
     e(  3 -  4) =      4.91108  eV     2   --> G_7  P_7       
     e(  5 -  8) =      4.97014  eV     4   --> G_8  P_8       
     e(  9 - 10) =      8.20106  eV     2   --> G_6  P_6       
     e( 11 - 12) =      9.48482  eV     2   --> G_7  P_7       
     e( 13 - 16) =      9.51160  eV     4   --> G_8  P_8       

 **************************************************************************

 **************************************************************************

                    xk=(   0.03333,   0.00000,   0.00000  )

     double point group C_2v (mm2) 
     there are  5 classes and  1 irreducible representations
     the character table:

       E     -E     C2    s_v   s_v'
                   -C2   -s_v  -s_v'
G_5    2.00 -2.00  0.00  0.00  0.00

     the symmetry operations in each class and the name of the first element:

     E             1
                                                                 
     -E           -1
                                                                 
      C2  -C2      2   -2
                                                                 
      s_v -s_v     3   -3
                                                                 
      s_v'-s_v'    4   -4
                                                                 

     Band symmetry, C_2v (mm2)  double point group:

     e(  1 -  2) =     -6.51501  eV     2   --> G_5  D_5       
     e(  3 -  4) =      4.89415  eV     2   --> G_5  D_5       
     e(  5 -  6) =      4.94946  eV     2   --> G_5  D_5       
     e(  7 -  8) =      4.96000  eV     2   --> G_5  D_5       
     e(  9 - 10) =      8.23052  eV     2   --> G_5  D_5       
     e( 11 - 12) =      9.48351  eV     2   --> G_5  D_5       
     e( 13 - 14) =      9.51558  eV     2   --> G_5  D_5       
     e( 15 - 16) =      9.52716  eV     2   --> G_5  D_5       

 **************************************************************************

 **************************************************************************

                    xk=(   0.06667,   0.00000,   0.00000  )

     Band symmetry, C_2v (mm2)  double point group:

     e(  1 -  2) =     -6.50269  eV     2   --> G_5  D_5       
     e(  3 -  4) =      4.83076  eV     2   --> G_5  D_5       
     e(  5 -  6) =      4.90349  eV     2   --> G_5  D_5       
     e(  7 -  8) =      4.93006  eV     2   --> G_5  D_5       
     e(  9 - 10) =      8.31558  eV     2   --> G_5  D_5       
     e( 11 - 12) =      9.44954  eV     2   --> G_5  D_5       
     e( 13 - 14) =      9.55774  eV     2   --> G_5  D_5       
     e( 15 - 16) =      9.57335  eV     2   --> G_5  D_5       

 **************************************************************************

 **************************************************************************

                    xk=(   0.10000,   0.00000,   0.00000  )

     Band symmetry, C_2v (mm2)  double point group:

     e(  1 -  2) =     -6.48219  eV     2   --> G_5  D_5       
     e(  3 -  4) =      4.71298  eV     2   --> G_5  D_5       
     e(  5 -  6) =      4.84916  eV     2   --> G_5  D_5       
     e(  7 -  8) =      4.88169  eV     2   --> G_5  D_5       
     e(  9 - 10) =      8.44753  eV     2   --> G_5  D_5       
     e( 11 - 12) =      9.38806  eV     2   --> G_5  D_5       
     e( 13 - 14) =      9.63332  eV     2   --> G_5  D_5       
     e( 15 - 16) =      9.64882  eV     2   --> G_5  D_5       

 **************************************************************************

 **************************************************************************

                    xk=(   0.13333,   0.00000,   0.00000  )

     Band symmetry, C_2v (mm2)  double point group:

     e(  1 -  2) =     -6.45356  eV     2   --> G_5  D_5       
     e(  3 -  4) =      4.55562  eV     2   --> G_5  D_5       
     e(  5 -  6) =      4.78309  eV     2   --> G_5  D_5       
     e(  7 -  8) =      4.81695  eV     2   --> G_5  D_5       
     e(  9 - 10) =      8.61490  eV     2   --> G_5  D_5       
     e( 11 - 12) =      9.30504  eV     2   --> G_5  D_5       
     e( 13 - 14) =      9.73688  eV     2   --> G_5  D_5       
     e( 15 - 16) =      9.75144  eV     2   --> G_5  D_5       

 **************************************************************************

 **************************************************************************

                    xk=(   0.16667,   0.00000,   0.00000  )

     Band symmetry, C_2v (mm2)  double point group:

     e(  1 -  2) =     -6.41687  eV     2   --> G_5  D_5       
     e(  3 -  4) =      4.37078  eV     2   --> G_5  D_5       
     e(  5 -  6) =      4.70466  eV     2   --> G_5  D_5       
     e(  7 -  8) =      4.73834  eV     2   --> G_5  D_5       
     e(  9 - 10) =      8.80532  eV     2   --> G_5  D_5       
     e( 11 - 12) =      9.20428  eV     2   --> G_5  D_5       
     e( 13 - 14) =      9.86561  eV     2   --> G_5  D_5       
     e( 15 - 16) =      9.87889  eV     2   --> G_5  D_5       

 **************************************************************************

 **************************************************************************

                    xk=(   0.20000,   0.00000,   0.00000  )

     Band symmetry, C_2v (mm2)  double point group:

     e(  1 -  2) =     -6.37221  eV     2   --> G_5  D_5       
     e(  3 -  4) =      4.16666  eV     2   --> G_5  D_5       
     e(  5 -  6) =      4.61555  eV     2   --> G_5  D_5       
     e(  7 -  8) =      4.64845  eV     2   --> G_5  D_5       
     e(  9 - 10) =      9.00348  eV     2   --> G_5  D_5       
     e( 11 - 12) =      9.09197  eV     2   --> G_5  D_5       
     e( 13 - 14) =     10.01648  eV     2   --> G_5  D_5       
     e( 15 - 16) =     10.02831  eV     2   --> G_5  D_5       

 **************************************************************************

 **************************************************************************

                    xk=(   0.23333,   0.00000,   0.00000  )

     Band symmetry, C_2v (mm2)  double point group:

     e(  1 -  2) =     -6.31970  eV     2   --> G_5  D_5       
     e(  3 -  4) =      3.94921  eV     2   --> G_5  D_5       
     e(  5 -  6) =      4.51803  eV     2   --> G_5  D_5       
     e(  7 -  8) =      4.54990  eV     2   --> G_5  D_5       
     e(  9 - 10) =      8.95914  eV     2   --> G_5  D_5       
     e( 11 - 12) =      9.20795  eV     2   --> G_5  D_5       
     e( 13 - 14) =     10.18701  eV     2   --> G_5  D_5       
     e( 15 - 16) =     10.19731  eV     2   --> G_5  D_5       

 **************************************************************************

 **************************************************************************

                    xk=(   0.26667,   0.00000,   0.00000  )

     Band symmetry, C_2v (mm2)  double point group:

     e(  1 -  2) =     -6.25948  eV     2   --> G_5  D_5       
     e(  3 -  4) =      3.72271  eV     2   --> G_5  D_5       
     e(  5 -  6) =      4.41434  eV     2   --> G_5  D_5       
     e(  7 -  8) =      4.44506  eV     2   --> G_5  D_5       
     e(  9 - 10) =      8.82465  eV     2   --> G_5  D_5       
     e( 11 - 12) =      9.38615  eV     2   --> G_5  D_5       
     e( 13 - 14) =     10.37455  eV     2   --> G_5  D_5       
     e( 15 - 16) =     10.38332  eV     2   --> G_5  D_5       

 **************************************************************************

 **************************************************************************

                    xk=(   0.30000,   0.00000,   0.00000  )

     Band symmetry, C_2v (mm2)  double point group:

     e(  1 -  2) =     -6.19174  eV     2   --> G_5  D_5       
     e(  3 -  4) =      3.49025  eV     2   --> G_5  D_5       
     e(  5 -  6) =      4.30653  eV     2   --> G_5  D_5       
     e(  7 -  8) =      4.33609  eV     2   --> G_5  D_5       
     e(  9 - 10) =      8.68381  eV     2   --> G_5  D_5       
     e( 11 - 12) =      9.52456  eV     2   --> G_5  D_5       
     e( 13 - 14) =     10.57685  eV     2   --> G_5  D_5       
     e( 15 - 16) =     10.58411  eV     2   --> G_5  D_5       

 **************************************************************************

 **************************************************************************

                    xk=(   0.33333,   0.00000,   0.00000  )

     Band symmetry, C_2v (mm2)  double point group:

     e(  1 -  2) =     -6.11667  eV     2   --> G_5  D_5       
     e(  3 -  4) =      3.25409  eV     2   --> G_5  D_5       
     e(  5 -  6) =      4.19640  eV     2   --> G_5  D_5       
     e(  7 -  8) =      4.22482  eV     2   --> G_5  D_5       
     e(  9 - 10) =      8.53922  eV     2   --> G_5  D_5       
     e( 11 - 12) =      9.60023  eV     2   --> G_5  D_5       
     e( 13 - 14) =     10.79188  eV     2   --> G_5  D_5       
     e( 15 - 16) =     10.79770  eV     2   --> G_5  D_5       

 **************************************************************************

 **************************************************************************

                    xk=(   0.36667,   0.00000,   0.00000  )

     Band symmetry, C_2v (mm2)  double point group:

     e(  1 -  2) =     -6.03453  eV     2   --> G_5  D_5       
     e(  3 -  4) =      3.01592  eV     2   --> G_5  D_5       
     e(  5 -  6) =      4.08557  eV     2   --> G_5  D_5       
     e(  7 -  8) =      4.11291  eV     2   --> G_5  D_5       
     e(  9 - 10) =      8.39294  eV     2   --> G_5  D_5       
     e( 11 - 12) =      9.59812  eV     2   --> G_5  D_5       
     e( 13 - 14) =     11.01789  eV     2   --> G_5  D_5       
     e( 15 - 16) =     11.02238  eV     2   --> G_5  D_5       

 **************************************************************************

 **************************************************************************

                    xk=(   0.40000,   0.00000,   0.00000  )

     Band symmetry, C_2v (mm2)  double point group:

     e(  1 -  2) =     -5.94561  eV     2   --> G_5  D_5       
     e(  3 -  4) =      2.77700  eV     2   --> G_5  D_5       
     e(  5 -  6) =      3.97538  eV     2   --> G_5  D_5       
     e(  7 -  8) =      4.00169  eV     2   --> G_5  D_5       
     e(  9 - 10) =      8.24646  eV     2   --> G_5  D_5       
     e( 11 - 12) =      9.52089  eV     2   --> G_5  D_5       
     e( 13 - 14) =     11.25344  eV     2   --> G_5  D_5       
     e( 15 - 16) =     11.25681  eV     2   --> G_5  D_5       

 **************************************************************************

 **************************************************************************

                    xk=(   0.43333,   0.00000,   0.00000  )

     Band symmetry, C_2v (mm2)  double point group:

     e(  1 -  2) =     -5.85024  eV     2   --> G_5  D_5       
     e(  3 -  4) =      2.53837  eV     2   --> G_5  D_5       
     e(  5 -  6) =      3.86698  eV     2   --> G_5  D_5       
     e(  7 -  8) =      3.89235  eV     2   --> G_5  D_5       
     e(  9 - 10) =      8.10099  eV     2   --> G_5  D_5       
     e( 11 - 12) =      9.38664  eV     2   --> G_5  D_5       
     e( 13 - 14) =     11.49733  eV     2   --> G_5  D_5       
     e( 15 - 16) =     11.49998  eV     2   --> G_5  D_5       

 **************************************************************************

 **************************************************************************

                    xk=(   0.46667,   0.00000,   0.00000  )

     Band symmetry, C_2v (mm2)  double point group:

     e(  1 -  2) =     -5.74884  eV     2   --> G_5  D_5       
     e(  3 -  4) =      2.30087  eV     2   --> G_5  D_5       
     e(  5 -  6) =      3.76133  eV     2   --> G_5  D_5       
     e(  7 -  8) =      3.78583  eV     2   --> G_5  D_5       
     e(  9 - 10) =      7.95750  eV     2   --> G_5  D_5       
     e( 11 - 12) =      9.21708  eV     2   --> G_5  D_5       
     e( 13 - 14) =     11.74805  eV     2   --> G_5  D_5       
     e( 15 - 16) =     11.75060  eV     2   --> G_5  D_5       

 **************************************************************************

 **************************************************************************

                    xk=(   0.50000,   0.00000,   0.00000  )

     Band symmetry, C_2v (mm2)  double point group:

     e(  1 -  2) =     -5.64189  eV     2   --> G_5  D_5       
     e(  3 -  4) =      2.06530  eV     2   --> G_5  D_5       
     e(  5 -  6) =      3.65927  eV     2   --> G_5  D_5       
     e(  7 -  8) =      3.68296  eV     2   --> G_5  D_5       
     e(  9 - 10) =      7.81680  eV     2   --> G_5  D_5       
     e( 11 - 12) =      9.02997  eV     2   --> G_5  D_5       
     e( 13 - 14) =     12.00493  eV     2   --> G_5  D_5       
     e( 15 - 16) =     12.00797  eV     2   --> G_5  D_5       

 **************************************************************************

 **************************************************************************

                    xk=(   0.53333,   0.00000,   0.00000  )

     Band symmetry, C_2v (mm2)  double point group:

     e(  1 -  2) =     -5.52996  eV     2   --> G_5  D_5       
     e(  3 -  4) =      1.83243  eV     2   --> G_5  D_5       
     e(  5 -  6) =      3.56148  eV     2   --> G_5  D_5       
     e(  7 -  8) =      3.58444  eV     2   --> G_5  D_5       
     e(  9 - 10) =      7.67956  eV     2   --> G_5  D_5       
     e( 11 - 12) =      8.83763  eV     2   --> G_5  D_5       
     e( 13 - 14) =     12.26741  eV     2   --> G_5  D_5       
     e( 15 - 16) =     12.27123  eV     2   --> G_5  D_5       

 **************************************************************************

 **************************************************************************

                    xk=(   0.56667,   0.00000,   0.00000  )

     Band symmetry, C_2v (mm2)  double point group:

     e(  1 -  2) =     -5.41372  eV     2   --> G_5  D_5       
     e(  3 -  4) =      1.60307  eV     2   --> G_5  D_5       
     e(  5 -  6) =      3.46855  eV     2   --> G_5  D_5       
     e(  7 -  8) =      3.49084  eV     2   --> G_5  D_5       
     e(  9 - 10) =      7.54637  eV     2   --> G_5  D_5       
     e( 11 - 12) =      8.64814  eV     2   --> G_5  D_5       
     e( 13 - 14) =     12.53496  eV     2   --> G_5  D_5       
     e( 15 - 16) =     12.53966  eV     2   --> G_5  D_5       

 **************************************************************************

 **************************************************************************

                    xk=(   0.60000,   0.00000,   0.00000  )

     Band symmetry, C_2v (mm2)  double point group:

     e(  1 -  2) =     -5.29398  eV     2   --> G_5  D_5       
     e(  3 -  4) =      1.37814  eV     2   --> G_5  D_5       
     e(  5 -  6) =      3.38097  eV     2   --> G_5  D_5       
     e(  7 -  8) =      3.40266  eV     2   --> G_5  D_5       
     e(  9 - 10) =      7.41784  eV     2   --> G_5  D_5       
     e( 11 - 12) =      8.46693  eV     2   --> G_5  D_5       
     e( 13 - 14) =     12.80728  eV     2   --> G_5  D_5       
     e( 15 - 16) =     12.81286  eV     2   --> G_5  D_5       

 **************************************************************************

 **************************************************************************

                    xk=(   0.63333,   0.00000,   0.00000  )

     Band symmetry, C_2v (mm2)  double point group:

     e(  1 -  2) =     -5.17172  eV     2   --> G_5  D_5       
     e(  3 -  4) =      1.15868  eV     2   --> G_5  D_5       
     e(  5 -  6) =      3.29918  eV     2   --> G_5  D_5       
     e(  7 -  8) =      3.32033  eV     2   --> G_5  D_5       
     e(  9 - 10) =      7.29461  eV     2   --> G_5  D_5       
     e( 11 - 12) =      8.29745  eV     2   --> G_5  D_5       
     e( 13 - 14) =     13.08372  eV     2   --> G_5  D_5       
     e( 15 - 16) =     13.09016  eV     2   --> G_5  D_5       

 **************************************************************************

 **************************************************************************

                    xk=(   0.66667,   0.00000,   0.00000  )

     Band symmetry, C_2v (mm2)  double point group:

     e(  1 -  2) =     -5.04811  eV     2   --> G_5  D_5       
     e(  3 -  4) =      0.94593  eV     2   --> G_5  D_5       
     e(  5 -  6) =      3.22353  eV     2   --> G_5  D_5       
     e(  7 -  8) =      3.24419  eV     2   --> G_5  D_5       
     e(  9 - 10) =      7.17741  eV     2   --> G_5  D_5       
     e( 11 - 12) =      8.14183  eV     2   --> G_5  D_5       
     e( 13 - 14) =     13.36405  eV     2   --> G_5  D_5       
     e( 15 - 16) =     13.37129  eV     2   --> G_5  D_5       

 **************************************************************************

 **************************************************************************

                    xk=(   0.70000,   0.00000,   0.00000  )

     Band symmetry, C_2v (mm2)  double point group:

     e(  1 -  2) =     -4.92454  eV     2   --> G_5  D_5       
     e(  3 -  4) =      0.74136  eV     2   --> G_5  D_5       
     e(  5 -  6) =      3.15431  eV     2   --> G_5  D_5       
     e(  7 -  8) =      3.17454  eV     2   --> G_5  D_5       
     e(  9 - 10) =      7.06709  eV     2   --> G_5  D_5       
     e( 11 - 12) =      8.00135  eV     2   --> G_5  D_5       
     e( 13 - 14) =     13.64788  eV     2   --> G_5  D_5       
     e( 15 - 16) =     13.65588  eV     2   --> G_5  D_5       

 **************************************************************************

 **************************************************************************

                    xk=(   0.73333,   0.00000,   0.00000  )

     Band symmetry, C_2v (mm2)  double point group:

     e(  1 -  2) =     -4.80272  eV     2   --> G_5  D_5       
     e(  3 -  4) =      0.54675  eV     2   --> G_5  D_5       
     e(  5 -  6) =      3.09179  eV     2   --> G_5  D_5       
     e(  7 -  8) =      3.11164  eV     2   --> G_5  D_5       
     e(  9 - 10) =      6.96465  eV     2   --> G_5  D_5       
     e( 11 - 12) =      7.87659  eV     2   --> G_5  D_5       
     e( 13 - 14) =     13.93487  eV     2   --> G_5  D_5       
     e( 15 - 16) =     13.94358  eV     2   --> G_5  D_5       

 **************************************************************************

 **************************************************************************

                    xk=(   0.76667,   0.00000,   0.00000  )

     Band symmetry, C_2v (mm2)  double point group:

     e(  1 -  2) =     -4.68466  eV     2   --> G_5  D_5       
     e(  3 -  4) =      0.36418  eV     2   --> G_5  D_5       
     e(  5 -  6) =      3.03617  eV     2   --> G_5  D_5       
     e(  7 -  8) =      3.05569  eV     2   --> G_5  D_5       
     e(  9 - 10) =      6.87110  eV     2   --> G_5  D_5       
     e( 11 - 12) =      7.76768  eV     2   --> G_5  D_5       
     e( 13 - 14) =     14.22444  eV     2   --> G_5  D_5       
     e( 15 - 16) =     14.23379  eV     2   --> G_5  D_5       

 **************************************************************************

 **************************************************************************

                    xk=(   0.80000,   0.00000,   0.00000  )

     Band symmetry, C_2v (mm2)  double point group:

     e(  1 -  2) =     -4.57276  eV     2   --> G_5  D_5       
     e(  3 -  4) =      0.19614  eV     2   --> G_5  D_5       
     e(  5 -  6) =      2.98764  eV     2   --> G_5  D_5       
     e(  7 -  8) =      3.00688  eV     2   --> G_5  D_5       
     e(  9 - 10) =      6.78755  eV     2   --> G_5  D_5       
     e( 11 - 12) =      7.67446  eV     2   --> G_5  D_5       
     e( 13 - 14) =     14.51586  eV     2   --> G_5  D_5       
     e( 15 - 16) =     14.52583  eV     2   --> G_5  D_5       

 **************************************************************************

 **************************************************************************

                    xk=(   0.83333,   0.00000,   0.00000  )

     Band symmetry, C_2v (mm2)  double point group:

     e(  1 -  2) =     -4.46980  eV     2   --> G_5  D_5       
     e(  3 -  4) =      0.04549  eV     2   --> G_5  D_5       
     e(  5 -  6) =      2.94634  eV     2   --> G_5  D_5       
     e(  7 -  8) =      2.96535  eV     2   --> G_5  D_5       
     e(  9 - 10) =      6.71495  eV     2   --> G_5  D_5       
     e( 11 - 12) =      7.59653  eV     2   --> G_5  D_5       
     e( 13 - 14) =     14.80787  eV     2   --> G_5  D_5       
     e( 15 - 16) =     14.81841  eV     2   --> G_5  D_5       

 **************************************************************************

 **************************************************************************

                    xk=(   0.86667,   0.00000,   0.00000  )

     Band symmetry, C_2v (mm2)  double point group:

     e(  1 -  2) =     -4.37890  eV     2   --> G_5  D_5       
     e(  3 -  4) =     -0.08457  eV     2   --> G_5  D_5       
     e(  5 -  6) =      2.91239  eV     2   --> G_5  D_5       
     e(  7 -  8) =      2.93121  eV     2   --> G_5  D_5       
     e(  9 - 10) =      6.65426  eV     2   --> G_5  D_5       
     e( 11 - 12) =      7.53349  eV     2   --> G_5  D_5       
     e( 13 - 14) =     15.09815  eV     2   --> G_5  D_5       
     e( 15 - 16) =     15.10924  eV     2   --> G_5  D_5       

 **************************************************************************

 **************************************************************************

                    xk=(   0.90000,   0.00000,   0.00000  )

     Band symmetry, C_2v (mm2)  double point group:

     e(  1 -  2) =     -4.30337  eV     2   --> G_5  D_5       
     e(  3 -  4) =     -0.19064  eV     2   --> G_5  D_5       
     e(  5 -  6) =      2.88589  eV     2   --> G_5  D_5       
     e(  7 -  8) =      2.90456  eV     2   --> G_5  D_5       
     e(  9 - 10) =      6.60621  eV     2   --> G_5  D_5       
     e( 11 - 12) =      7.48489  eV     2   --> G_5  D_5       
     e( 13 - 14) =     15.38193  eV     2   --> G_5  D_5       
     e( 15 - 16) =     15.39358  eV     2   --> G_5  D_5       

 **************************************************************************

 **************************************************************************

                    xk=(   0.93333,   0.00000,   0.00000  )

     Band symmetry, C_2v (mm2)  double point group:

     e(  1 -  2) =     -4.24647  eV     2   --> G_5  D_5       
     e(  3 -  4) =     -0.26940  eV     2   --> G_5  D_5       
     e(  5 -  6) =      2.86691  eV     2   --> G_5  D_5       
     e(  7 -  8) =      2.88548  eV     2   --> G_5  D_5       
     e(  9 - 10) =      6.57147  eV     2   --> G_5  D_5       
     e( 11 - 12) =      7.45048  eV     2   --> G_5  D_5       
     e( 13 - 14) =     15.64790  eV     2   --> G_5  D_5       
     e( 15 - 16) =     15.66014  eV     2   --> G_5  D_5       

 **************************************************************************

 **************************************************************************

                    xk=(   0.96667,   0.00000,   0.00000  )

     Band symmetry, C_2v (mm2)  double point group:

     e(  1 -  2) =     -4.21103  eV     2   --> G_5  D_5       
     e(  3 -  4) =     -0.31798  eV     2   --> G_5  D_5       
     e(  5 -  6) =      2.85550  eV     2   --> G_5  D_5       
     e(  7 -  8) =      2.87401  eV     2   --> G_5  D_5       
     e(  9 - 10) =      6.55048  eV     2   --> G_5  D_5       
     e( 11 - 12) =      7.42989  eV     2   --> G_5  D_5       
     e( 13 - 14) =     15.86556  eV     2   --> G_5  D_5       
     e( 15 - 16) =     15.87842  eV     2   --> G_5  D_5       

 **************************************************************************

 **************************************************************************

                    xk=(   1.00000,   0.00000,   0.00000  )

     double point group D_2d (-42m)
     there are  7 classes and  2 irreducible representations
     the character table:

       E     -E    2S4   -2S4  C2    2C2'  2s_d 
                               -C2   -2C2' -2s_d
G_6    2.00 -2.00  1.41 -1.41  0.00  0.00  0.00
G_7    2.00 -2.00 -1.41  1.41  0.00  0.00  0.00

     the symmetry operations in each class and the name of the first element:

     E             1
                                                                 
     -E           -1
                                                                 
     2S4           7    8
                                                                 
     -2S4         -7   -8
                                                                 
     C2   -C2      4   -4
                                                                 
     2C2' -2C2'    2   -2    3   -3
                                                                 
     2s_d -2s_d    5    6   -6   -5
                                                                 

     Band symmetry, D_2d (-42m) double point group:

     e(  1 -  2) =     -4.19899  eV     2   --> G_7  X_7  W_7  
     e(  3 -  4) =     -0.33441  eV     2   --> G_6  X_6  W_6  
     e(  5 -  6) =      2.85170  eV     2   --> G_6  X_6  W_6  
     e(  7 -  8) =      2.87018  eV     2   --> G_7  X_7  W_7  
     e(  9 - 10) =      6.54342  eV     2   --> G_7  X_7  W_7  
     e( 11 - 12) =      7.42305  eV     2   --> G_6  X_6  W_6  
     e( 13 - 14) =     15.95976  eV     2   --> G_6  X_6  W_6  
     e( 15 - 16) =     15.97295  eV     2   --> G_7  X_7  W_7  

 **************************************************************************

 **************************************************************************

                    xk=(   1.00000,   0.02500,   0.02500  )

     double point group C_s (m)    
     there are  4 classes and  2 irreducible representations
     the character table:

       E     -E    s     -s   
                              
G_3    1.00 -1.00  0.00  0.00
G_4    1.00 -1.00  0.00  0.00

     imaginary part

       E     -E    s     -s   
                              
G_3    0.00  0.00  1.00 -1.00
G_4    0.00  0.00 -1.00  1.00

     the symmetry operations in each class and the name of the first element:

     E             1
                                                                 
     -E           -1
                                                                 
     s             2
                                                                 
     -s           -2
                                                                 

     Band symmetry, C_s (m)     double point group:

     e(  1 -  1) =     -4.19853  eV     1   --> G_4            
     e(  2 -  2) =     -4.19829  eV     1   --> G_3            
     e(  3 -  3) =     -0.33127  eV     1   --> G_3            
     e(  4 -  4) =     -0.33037  eV     1   --> G_4            
     e(  5 -  5) =      2.82829  eV     1   --> G_4            
     e(  6 -  6) =      2.83010  eV     1   --> G_3            
     e(  7 -  7) =      2.86679  eV     1   --> G_3            
     e(  8 -  8) =      2.86753  eV     1   --> G_4            
     e(  9 -  9) =      6.56760  eV     1   --> G_4            
     e( 10 - 10) =      6.56834  eV     1   --> G_3            
     e( 11 - 11) =      7.44835  eV     1   --> G_3            
     e( 12 - 12) =      7.44980  eV     1   --> G_4            
     e( 13 - 13) =     15.89442  eV     1   --> G_3            
     e( 14 - 14) =     15.89572  eV     1   --> G_4            
     e( 15 - 15) =     15.93438  eV     1   --> G_3            
     e( 16 - 16) =     15.93609  eV     1   --> G_4            

 **************************************************************************

 **************************************************************************

                    xk=(   1.00000,   0.05000,   0.05000  )

     Band symmetry, C_s (m)     double point group:

     e(  1 -  1) =     -4.19703  eV     1   --> G_4            
     e(  2 -  2) =     -4.19656  eV     1   --> G_3            
     e(  3 -  3) =     -0.32104  eV     1   --> G_3            
     e(  4 -  4) =     -0.31923  eV     1   --> G_4            
     e(  5 -  5) =      2.74591  eV     1   --> G_4            
     e(  6 -  6) =      2.74847  eV     1   --> G_3            
     e(  7 -  7) =      2.87669  eV     1   --> G_3            
     e(  8 -  8) =      2.87714  eV     1   --> G_4            
     e(  9 -  9) =      6.63348  eV     1   --> G_4            
     e( 10 - 10) =      6.63496  eV     1   --> G_3            
     e( 11 - 11) =      7.52863  eV     1   --> G_3            
     e( 12 - 12) =      7.53149  eV     1   --> G_4            
     e( 13 - 13) =     15.71113  eV     1   --> G_3            
     e( 14 - 14) =     15.71176  eV     1   --> G_4            
     e( 15 - 15) =     15.83715  eV     1   --> G_3            
     e( 16 - 16) =     15.84355  eV     1   --> G_4            

 **************************************************************************

 **************************************************************************

                    xk=(   1.00000,   0.07500,   0.07500  )

     Band symmetry, C_s (m)     double point group:

     e(  1 -  1) =     -4.19482  eV     1   --> G_4            
     e(  2 -  2) =     -4.19411  eV     1   --> G_3            
     e(  3 -  3) =     -0.30399  eV     1   --> G_3            
     e(  4 -  4) =     -0.30123  eV     1   --> G_4            
     e(  5 -  5) =      2.61891  eV     1   --> G_4            
     e(  6 -  6) =      2.62236  eV     1   --> G_3            
     e(  7 -  7) =      2.89550  eV     1   --> G_3            
     e(  8 -  8) =      2.89580  eV     1   --> G_4            
     e(  9 -  9) =      6.72341  eV     1   --> G_4            
     e( 10 - 10) =      6.72552  eV     1   --> G_3            
     e( 11 - 11) =      7.67079  eV     1   --> G_3            
     e( 12 - 12) =      7.67489  eV     1   --> G_4            
     e( 13 - 13) =     15.45956  eV     1   --> G_3            
     e( 14 - 14) =     15.45995  eV     1   --> G_4            
     e( 15 - 15) =     15.68282  eV     1   --> G_3            
     e( 16 - 16) =     15.69614  eV     1   --> G_4            

 **************************************************************************

 **************************************************************************

                    xk=(   1.00000,   0.10000,   0.10000  )

     Band symmetry, C_s (m)     double point group:

     e(  1 -  1) =     -4.19242  eV     1   --> G_4            
     e(  2 -  2) =     -4.19149  eV     1   --> G_3            
     e(  3 -  3) =     -0.28057  eV     1   --> G_3            
     e(  4 -  4) =     -0.27678  eV     1   --> G_4            
     e(  5 -  5) =      2.46250  eV     1   --> G_4            
     e(  6 -  6) =      2.46689  eV     1   --> G_3            
     e(  7 -  7) =      2.92201  eV     1   --> G_3            
     e(  8 -  8) =      2.92224  eV     1   --> G_4            
     e(  9 -  9) =      6.82001  eV     1   --> G_4            
     e( 10 - 10) =      6.82248  eV     1   --> G_3            
     e( 11 - 11) =      7.87892  eV     1   --> G_3            
     e( 12 - 12) =      7.88395  eV     1   --> G_4            
     e( 13 - 13) =     15.17418  eV     1   --> G_3            
     e( 14 - 14) =     15.17447  eV     1   --> G_4            
     e( 15 - 15) =     15.46802  eV     1   --> G_3            
     e( 16 - 16) =     15.49029  eV     1   --> G_4            

 **************************************************************************

 **************************************************************************

                    xk=(   1.00000,   0.12500,   0.12500  )

     Band symmetry, C_s (m)     double point group:

     e(  1 -  1) =     -4.19061  eV     1   --> G_4            
     e(  2 -  2) =     -4.18946  eV     1   --> G_3            
     e(  3 -  3) =     -0.25142  eV     1   --> G_3            
     e(  4 -  4) =     -0.24654  eV     1   --> G_4            
     e(  5 -  5) =      2.29045  eV     1   --> G_4            
     e(  6 -  6) =      2.29586  eV     1   --> G_3            
     e(  7 -  7) =      2.95595  eV     1   --> G_3            
     e(  8 -  8) =      2.95613  eV     1   --> G_4            
     e(  9 -  9) =      6.91440  eV     1   --> G_4            
     e( 10 - 10) =      6.91693  eV     1   --> G_3            
     e( 11 - 11) =      8.14896  eV     1   --> G_3            
     e( 12 - 12) =      8.15460  eV     1   --> G_4            
     e( 13 - 13) =     14.87387  eV     1   --> G_3            
     e( 14 - 14) =     14.87409  eV     1   --> G_4            
     e( 15 - 15) =     15.19145  eV     1   --> G_3            
     e( 16 - 16) =     15.21245  eV     1   --> G_4            

 **************************************************************************

 **************************************************************************

                    xk=(   1.00000,   0.15000,   0.15000  )

     Band symmetry, C_s (m)     double point group:

     e(  1 -  1) =     -4.19036  eV     1   --> G_4            
     e(  2 -  2) =     -4.18901  eV     1   --> G_3            
     e(  3 -  3) =     -0.21743  eV     1   --> G_3            
     e(  4 -  4) =     -0.21137  eV     1   --> G_4            
     e(  5 -  5) =      2.11465  eV     1   --> G_4            
     e(  6 -  6) =      2.12115  eV     1   --> G_3            
     e(  7 -  7) =      2.99712  eV     1   --> G_3            
     e(  8 -  8) =      2.99727  eV     1   --> G_4            
     e(  9 -  9) =      7.00584  eV     1   --> G_4            
     e( 10 - 10) =      7.00822  eV     1   --> G_3            
     e( 11 - 11) =      8.47060  eV     1   --> G_3            
     e( 12 - 12) =      8.47663  eV     1   --> G_4            
     e( 13 - 13) =     14.56872  eV     1   --> G_3            
     e( 14 - 14) =     14.56891  eV     1   --> G_4            
     e( 15 - 15) =     14.88338  eV     1   --> G_3            
     e( 16 - 16) =     14.89900  eV     1   --> G_4            

 **************************************************************************

 **************************************************************************

                    xk=(   1.00000,   0.17500,   0.17500  )

     Band symmetry, C_s (m)     double point group:

     e(  1 -  1) =     -4.19284  eV     1   --> G_4            
     e(  2 -  2) =     -4.19132  eV     1   --> G_3            
     e(  3 -  3) =     -0.17976  eV     1   --> G_3            
     e(  4 -  4) =     -0.17242  eV     1   --> G_4            
     e(  5 -  5) =      1.94504  eV     1   --> G_4            
     e(  6 -  6) =      1.95272  eV     1   --> G_3            
     e(  7 -  7) =      3.04529  eV     1   --> G_3            
     e(  8 -  8) =      3.04543  eV     1   --> G_4            
     e(  9 -  9) =      7.09694  eV     1   --> G_4            
     e( 10 - 10) =      7.09907  eV     1   --> G_3            
     e( 11 - 11) =      8.83177  eV     1   --> G_3            
     e( 12 - 12) =      8.83814  eV     1   --> G_4            
     e( 13 - 13) =     14.26442  eV     1   --> G_3            
     e( 14 - 14) =     14.26461  eV     1   --> G_4            
     e( 15 - 15) =     14.56842  eV     1   --> G_3            
     e( 16 - 16) =     14.58066  eV     1   --> G_4            

 **************************************************************************

 **************************************************************************

                    xk=(   1.00000,   0.20000,   0.20000  )

     Band symmetry, C_s (m)     double point group:

     e(  1 -  1) =     -4.19942  eV     1   --> G_4            
     e(  2 -  2) =     -4.19775  eV     1   --> G_3            
     e(  3 -  3) =     -0.13980  eV     1   --> G_3            
     e(  4 -  4) =     -0.13109  eV     1   --> G_4            
     e(  5 -  5) =      1.78997  eV     1   --> G_4            
     e(  6 -  6) =      1.79894  eV     1   --> G_3            
     e(  7 -  7) =      3.10022  eV     1   --> G_3            
     e(  8 -  8) =      3.10033  eV     1   --> G_4            
     e(  9 -  9) =      7.19050  eV     1   --> G_4            
     e( 10 - 10) =      7.19236  eV     1   --> G_3            
     e( 11 - 11) =      9.22184  eV     1   --> G_3            
     e( 12 - 12) =      9.22856  eV     1   --> G_4            
     e( 13 - 13) =     13.96446  eV     1   --> G_3            
     e( 14 - 14) =     13.96464  eV     1   --> G_4            
     e( 15 - 15) =     14.25534  eV     1   --> G_3            
     e( 16 - 16) =     14.26563  eV     1   --> G_4            

 **************************************************************************

 **************************************************************************

                    xk=(   1.00000,   0.22500,   0.22500  )

     Band symmetry, C_s (m)     double point group:

     e(  1 -  1) =     -4.21157  eV     1   --> G_4            
     e(  2 -  2) =     -4.20978  eV     1   --> G_3            
     e(  3 -  3) =     -0.09909  eV     1   --> G_3            
     e(  4 -  4) =     -0.08898  eV     1   --> G_4            
     e(  5 -  5) =      1.65662  eV     1   --> G_4            
     e(  6 -  6) =      1.66693  eV     1   --> G_3            
     e(  7 -  7) =      3.16159  eV     1   --> G_3            
     e(  8 -  8) =      3.16169  eV     1   --> G_4            
     e(  9 -  9) =      7.28853  eV     1   --> G_4            
     e( 10 - 10) =      7.29012  eV     1   --> G_3            
     e( 11 - 11) =      9.63134  eV     1   --> G_3            
     e( 12 - 12) =      9.63850  eV     1   --> G_4            
     e( 13 - 13) =     13.67112  eV     1   --> G_3            
     e( 14 - 14) =     13.67131  eV     1   --> G_4            
     e( 15 - 15) =     13.94767  eV     1   --> G_3            
     e( 16 - 16) =     13.95687  eV     1   --> G_4            

 **************************************************************************

 **************************************************************************

                    xk=(   1.00000,   0.25000,   0.25000  )

     Band symmetry, C_s (m)     double point group:

     e(  1 -  1) =     -4.23084  eV     1   --> G_4            
     e(  2 -  2) =     -4.22896  eV     1   --> G_3            
     e(  3 -  3) =     -0.05907  eV     1   --> G_3            
     e(  4 -  4) =     -0.04761  eV     1   --> G_4            
     e(  5 -  5) =      1.55097  eV     1   --> G_4            
     e(  6 -  6) =      1.56260  eV     1   --> G_3            
     e(  7 -  8) =      3.22904  eV     2   --> G_3            
     e(  7 -  8) =      3.22904  eV     2   --> G_4            
     e(  9 -  9) =      7.39226  eV     1   --> G_4            
     e( 10 - 10) =      7.39357  eV     1   --> G_3            
     e( 11 - 11) =     10.05059  eV     1   --> G_3            
     e( 12 - 12) =     10.05829  eV     1   --> G_4            
     e( 13 - 13) =     13.38585  eV     1   --> G_3            
     e( 14 - 14) =     13.38605  eV     1   --> G_4            
     e( 15 - 15) =     13.64696  eV     1   --> G_3            
     e( 16 - 16) =     13.65565  eV     1   --> G_4            

 **************************************************************************

 **************************************************************************

                    xk=(   0.96667,   0.24167,   0.24167  )

     Band symmetry, C_s (m)     double point group:

     e(  1 -  1) =     -4.23117  eV     1   --> G_4            
     e(  2 -  2) =     -4.22934  eV     1   --> G_3            
     e(  3 -  3) =     -0.07002  eV     1   --> G_3            
     e(  4 -  4) =     -0.05912  eV     1   --> G_4            
     e(  5 -  5) =      1.59762  eV     1   --> G_4            
     e(  6 -  6) =      1.60871  eV     1   --> G_3            
     e(  7 -  8) =      3.20928  eV     2   --> G_3            
     e(  7 -  8) =      3.20928  eV     2   --> G_4            
     e(  9 -  9) =      7.36365  eV     1   --> G_4            
     e( 10 - 10) =      7.36505  eV     1   --> G_3            
     e( 11 - 11) =      9.91462  eV     1   --> G_3            
     e( 12 - 12) =      9.92215  eV     1   --> G_4            
     e( 13 - 13) =     13.42430  eV     1   --> G_3            
     e( 14 - 14) =     13.42447  eV     1   --> G_4            
     e( 15 - 15) =     13.62367  eV     1   --> G_3            
     e( 16 - 16) =     13.62946  eV     1   --> G_4            

 **************************************************************************

 **************************************************************************

                    xk=(   0.93333,   0.23333,   0.23333  )

     Band symmetry, C_s (m)     double point group:

     e(  1 -  1) =     -4.24860  eV     1   --> G_4            
     e(  2 -  2) =     -4.24685  eV     1   --> G_3            
     e(  3 -  3) =     -0.07191  eV     1   --> G_3            
     e(  4 -  4) =     -0.06175  eV     1   --> G_4            
     e(  5 -  5) =      1.67338  eV     1   --> G_4            
     e(  6 -  6) =      1.68379  eV     1   --> G_3            
     e(  7 -  7) =      3.19701  eV     1   --> G_3            
     e(  8 -  8) =      3.19712  eV     1   --> G_4            
     e(  9 -  9) =      7.34906  eV     1   --> G_4            
     e( 10 - 10) =      7.35055  eV     1   --> G_3            
     e( 11 - 11) =      9.78819  eV     1   --> G_3            
     e( 12 - 12) =      9.79559  eV     1   --> G_4            
     e( 13 - 14) =     13.37441  eV     2   --> G_3            
     e( 13 - 14) =     13.37441  eV     2   --> G_4            
     e( 15 - 15) =     13.47019  eV     1   --> G_3            
     e( 16 - 16) =     13.47326  eV     1   --> G_4            

 **************************************************************************

 **************************************************************************

                    xk=(   0.90000,   0.22500,   0.22500  )

     Band symmetry, C_s (m)     double point group:

     e(  1 -  1) =     -4.28388  eV     1   --> G_4            
     e(  2 -  2) =     -4.28223  eV     1   --> G_3            
     e(  3 -  3) =     -0.05859  eV     1   --> G_3            
     e(  4 -  4) =     -0.04926  eV     1   --> G_4            
     e(  5 -  5) =      1.77244  eV     1   --> G_4            
     e(  6 -  6) =      1.78215  eV     1   --> G_3            
     e(  7 -  7) =      3.19242  eV     1   --> G_3            
     e(  8 -  8) =      3.19253  eV     1   --> G_4            
     e(  9 -  9) =      7.34861  eV     1   --> G_4            
     e( 10 - 10) =      7.35020  eV     1   --> G_3            
     e( 11 - 11) =      9.67279  eV     1   --> G_3            
     e( 12 - 12) =      9.68011  eV     1   --> G_4            
     e( 13 - 13) =     13.27249  eV     1   --> G_4            
     e( 14 - 14) =     13.27260  eV     1   --> G_3            
     e( 15 - 15) =     13.28449  eV     1   --> G_3            
     e( 16 - 16) =     13.28637  eV     1   --> G_4            

 **************************************************************************

 **************************************************************************

                    xk=(   0.86667,   0.21667,   0.21667  )

     Band symmetry, C_s (m)     double point group:

     e(  1 -  1) =     -4.33686  eV     1   --> G_4            
     e(  2 -  2) =     -4.33535  eV     1   --> G_3            
     e(  3 -  3) =     -0.02575  eV     1   --> G_3            
     e(  4 -  4) =     -0.01723  eV     1   --> G_4            
     e(  5 -  5) =      1.88986  eV     1   --> G_4            
     e(  6 -  6) =      1.89888  eV     1   --> G_3            
     e(  7 -  7) =      3.19562  eV     1   --> G_3            
     e(  8 -  8) =      3.19574  eV     1   --> G_4            
     e(  9 -  9) =      7.36226  eV     1   --> G_4            
     e( 10 - 10) =      7.36394  eV     1   --> G_3            
     e( 11 - 11) =      9.56961  eV     1   --> G_3            
     e( 12 - 12) =      9.57687  eV     1   --> G_4            
     e( 13 - 13) =     13.08205  eV     1   --> G_3            
     e( 14 - 14) =     13.08284  eV     1   --> G_4            
     e( 15 - 15) =     13.15386  eV     1   --> G_3            
     e( 16 - 16) =     13.15407  eV     1   --> G_4            

 **************************************************************************

 **************************************************************************

                    xk=(   0.83333,   0.20833,   0.20833  )

     Band symmetry, C_s (m)     double point group:

     e(  1 -  1) =     -4.40656  eV     1   --> G_4            
     e(  2 -  2) =     -4.40521  eV     1   --> G_3            
     e(  3 -  3) =      0.02907  eV     1   --> G_3            
     e(  4 -  4) =      0.03681  eV     1   --> G_4            
     e(  5 -  5) =      2.02159  eV     1   --> G_4            
     e(  6 -  6) =      2.02999  eV     1   --> G_3            
     e(  7 -  7) =      3.20669  eV     1   --> G_3            
     e(  8 -  8) =      3.20682  eV     1   --> G_4            
     e(  9 -  9) =      7.38978  eV     1   --> G_4            
     e( 10 - 10) =      7.39155  eV     1   --> G_3            
     e( 11 - 11) =      9.47969  eV     1   --> G_3            
     e( 12 - 12) =      9.48692  eV     1   --> G_4            
     e( 13 - 13) =     12.88009  eV     1   --> G_3            
     e( 14 - 14) =     12.88049  eV     1   --> G_4            
     e( 15 - 15) =     13.02141  eV     1   --> G_3            
     e( 16 - 16) =     13.02153  eV     1   --> G_4            

 **************************************************************************

 **************************************************************************

                    xk=(   0.80000,   0.20000,   0.20000  )

     Band symmetry, C_s (m)     double point group:

     e(  1 -  1) =     -4.49127  eV     1   --> G_4            
     e(  2 -  2) =     -4.49008  eV     1   --> G_3            
     e(  3 -  3) =      0.10672  eV     1   --> G_3            
     e(  4 -  4) =      0.11374  eV     1   --> G_4            
     e(  5 -  5) =      2.16440  eV     1   --> G_4            
     e(  6 -  6) =      2.17225  eV     1   --> G_3            
     e(  7 -  7) =      3.22567  eV     1   --> G_3            
     e(  8 -  8) =      3.22581  eV     1   --> G_4            
     e(  9 -  9) =      7.43076  eV     1   --> G_4            
     e( 10 - 10) =      7.43262  eV     1   --> G_3            
     e( 11 - 11) =      9.40404  eV     1   --> G_3            
     e( 12 - 12) =      9.41126  eV     1   --> G_4            
     e( 13 - 13) =     12.67765  eV     1   --> G_3            
     e( 14 - 14) =     12.67777  eV     1   --> G_4            
     e( 15 - 16) =     12.88516  eV     2   --> G_3            
     e( 15 - 16) =     12.88516  eV     2   --> G_4            

 **************************************************************************

 **************************************************************************

                    xk=(   0.76667,   0.19167,   0.19167  )

     Band symmetry, C_s (m)     double point group:

     e(  1 -  1) =     -4.58877  eV     1   --> G_4            
     e(  2 -  2) =     -4.58774  eV     1   --> G_3            
     e(  3 -  3) =      0.20688  eV     1   --> G_3            
     e(  4 -  4) =      0.21325  eV     1   --> G_4            
     e(  5 -  5) =      2.31563  eV     1   --> G_4            
     e(  6 -  6) =      2.32300  eV     1   --> G_3            
     e(  7 -  7) =      3.25255  eV     1   --> G_3            
     e(  8 -  8) =      3.25270  eV     1   --> G_4            
     e(  9 -  9) =      7.48460  eV     1   --> G_4            
     e( 10 - 10) =      7.48655  eV     1   --> G_3            
     e( 11 - 11) =      9.34376  eV     1   --> G_3            
     e( 12 - 12) =      9.35098  eV     1   --> G_4            
     e( 13 - 14) =     12.47621  eV     2   --> G_3            
     e( 13 - 14) =     12.47621  eV     2   --> G_4            
     e( 15 - 16) =     12.74792  eV     2   --> G_3            
     e( 15 - 16) =     12.74792  eV     2   --> G_4            

 **************************************************************************

 **************************************************************************

                    xk=(   0.73333,   0.18333,   0.18333  )

     Band symmetry, C_s (m)     double point group:

     e(  1 -  1) =     -4.69658  eV     1   --> G_4            
     e(  2 -  2) =     -4.69570  eV     1   --> G_3            
     e(  3 -  3) =      0.32847  eV     1   --> G_3            
     e(  4 -  4) =      0.33426  eV     1   --> G_4            
     e(  5 -  5) =      2.47302  eV     1   --> G_4            
     e(  6 -  6) =      2.47997  eV     1   --> G_3            
     e(  7 -  7) =      3.28729  eV     1   --> G_3            
     e(  8 -  8) =      3.28747  eV     1   --> G_4            
     e(  9 -  9) =      7.55037  eV     1   --> G_4            
     e( 10 - 10) =      7.55240  eV     1   --> G_3            
     e( 11 - 11) =      9.29998  eV     1   --> G_3            
     e( 12 - 12) =      9.30721  eV     1   --> G_4            
     e( 13 - 13) =     12.27679  eV     1   --> G_4            
     e( 14 - 14) =     12.27703  eV     1   --> G_3            
     e( 15 - 16) =     12.61090  eV     2   --> G_3            
     e( 15 - 16) =     12.61090  eV     2   --> G_4            

 **************************************************************************

 **************************************************************************

                    xk=(   0.70000,   0.17500,   0.17500  )

     Band symmetry, C_s (m)     double point group:

     e(  1 -  1) =     -4.81218  eV     1   --> G_4            
     e(  2 -  2) =     -4.81144  eV     1   --> G_3            
     e(  3 -  3) =      0.47003  eV     1   --> G_3            
     e(  4 -  4) =      0.47529  eV     1   --> G_4            
     e(  5 -  5) =      2.63463  eV     1   --> G_4            
     e(  6 -  6) =      2.64122  eV     1   --> G_3            
     e(  7 -  7) =      3.32982  eV     1   --> G_3            
     e(  8 -  8) =      3.33001  eV     1   --> G_4            
     e(  9 -  9) =      7.62686  eV     1   --> G_4            
     e( 10 - 10) =      7.62895  eV     1   --> G_3            
     e( 11 - 11) =      9.27386  eV     1   --> G_3            
     e( 12 - 12) =      9.28111  eV     1   --> G_4            
     e( 13 - 13) =     12.08023  eV     1   --> G_4            
     e( 14 - 14) =     12.08061  eV     1   --> G_3            
     e( 15 - 16) =     12.47418  eV     2   --> G_3            
     e( 15 - 16) =     12.47418  eV     2   --> G_4            

 **************************************************************************

 **************************************************************************

                    xk=(   0.66667,   0.16667,   0.16667  )

     Band symmetry, C_s (m)     double point group:

     e(  1 -  1) =     -4.93317  eV     1   --> G_4            
     e(  2 -  2) =     -4.93255  eV     1   --> G_3            
     e(  3 -  3) =      0.62988  eV     1   --> G_3            
     e(  4 -  4) =      0.63469  eV     1   --> G_4            
     e(  5 -  5) =      2.79873  eV     1   --> G_4            
     e(  6 -  6) =      2.80501  eV     1   --> G_3            
     e(  7 -  7) =      3.37999  eV     1   --> G_3            
     e(  8 -  8) =      3.38022  eV     1   --> G_4            
     e(  9 -  9) =      7.71246  eV     1   --> G_4            
     e( 10 - 10) =      7.71459  eV     1   --> G_3            
     e( 11 - 11) =      9.26671  eV     1   --> G_3            
     e( 12 - 12) =      9.27397  eV     1   --> G_4            
     e( 13 - 13) =     11.88736  eV     1   --> G_4            
     e( 14 - 14) =     11.88787  eV     1   --> G_3            
     e( 15 - 16) =     12.33728  eV     2   --> G_3            
     e( 15 - 16) =     12.33728  eV     2   --> G_4            

 **************************************************************************

 **************************************************************************

                    xk=(   0.63333,   0.15833,   0.15833  )

     Band symmetry, C_s (m)     double point group:

     e(  1 -  1) =     -5.05734  eV     1   --> G_4            
     e(  2 -  2) =     -5.05683  eV     1   --> G_3            
     e(  3 -  3) =      0.80639  eV     1   --> G_3            
     e(  4 -  4) =      0.81080  eV     1   --> G_4            
     e(  5 -  5) =      2.96375  eV     1   --> G_4            
     e(  6 -  6) =      2.96976  eV     1   --> G_3            
     e(  7 -  7) =      3.43765  eV     1   --> G_3            
     e(  8 -  8) =      3.43792  eV     1   --> G_4            
     e(  9 -  9) =      7.80526  eV     1   --> G_4            
     e( 10 - 10) =      7.80738  eV     1   --> G_3            
     e( 11 - 11) =      9.27952  eV     1   --> G_3            
     e( 12 - 12) =      9.28677  eV     1   --> G_4            
     e( 13 - 13) =     11.69917  eV     1   --> G_4            
     e( 14 - 14) =     11.69981  eV     1   --> G_3            
     e( 15 - 16) =     12.19932  eV     2   --> G_3            
     e( 15 - 16) =     12.19932  eV     2   --> G_4            

 **************************************************************************

 **************************************************************************

                    xk=(   0.60000,   0.15000,   0.15000  )

     Band symmetry, C_s (m)     double point group:

     e(  1 -  1) =     -5.18273  eV     1   --> G_4            
     e(  2 -  2) =     -5.18231  eV     1   --> G_3            
     e(  3 -  3) =      0.99798  eV     1   --> G_3            
     e(  4 -  4) =      1.00203  eV     1   --> G_4            
     e(  5 -  5) =      3.12826  eV     1   --> G_4            
     e(  6 -  6) =      3.13405  eV     1   --> G_3            
     e(  7 -  7) =      3.50255  eV     1   --> G_3            
     e(  8 -  8) =      3.50289  eV     1   --> G_4            
     e(  9 -  9) =      7.90306  eV     1   --> G_4            
     e( 10 - 10) =      7.90512  eV     1   --> G_3            
     e( 11 - 11) =      9.31273  eV     1   --> G_3            
     e( 12 - 12) =      9.31996  eV     1   --> G_4            
     e( 13 - 13) =     11.51696  eV     1   --> G_4            
     e( 14 - 14) =     11.51775  eV     1   --> G_3            
     e( 15 - 16) =     12.05887  eV     2   --> G_3            
     e( 15 - 16) =     12.05887  eV     2   --> G_4            

 **************************************************************************

 **************************************************************************

                    xk=(   0.56667,   0.14167,   0.14167  )

     Band symmetry, C_s (m)     double point group:

     e(  1 -  1) =     -5.30763  eV     1   --> G_4            
     e(  2 -  2) =     -5.30729  eV     1   --> G_3            
     e(  3 -  3) =      1.20316  eV     1   --> G_3            
     e(  4 -  4) =      1.20690  eV     1   --> G_4            
     e(  5 -  5) =      3.29094  eV     1   --> G_4            
     e(  6 -  6) =      3.29656  eV     1   --> G_3            
     e(  7 -  7) =      3.57444  eV     1   --> G_3            
     e(  8 -  8) =      3.57486  eV     1   --> G_4            
     e(  9 -  9) =      8.00376  eV     1   --> G_4            
     e( 10 - 10) =      8.00570  eV     1   --> G_3            
     e( 11 - 11) =      9.36569  eV     1   --> G_3            
     e( 12 - 12) =      9.37285  eV     1   --> G_4            
     e( 13 - 13) =     11.34289  eV     1   --> G_4            
     e( 14 - 14) =     11.34385  eV     1   --> G_3            
     e( 15 - 16) =     11.91461  eV     2   --> G_3            
     e( 15 - 16) =     11.91461  eV     2   --> G_4            

 **************************************************************************

 **************************************************************************

                    xk=(   0.53333,   0.13333,   0.13333  )

     Band symmetry, C_s (m)     double point group:

     e(  1 -  1) =     -5.43059  eV     1   --> G_4            
     e(  2 -  2) =     -5.43032  eV     1   --> G_3            
     e(  3 -  3) =      1.42058  eV     1   --> G_3            
     e(  4 -  4) =      1.42406  eV     1   --> G_4            
     e(  5 -  5) =      3.45056  eV     1   --> G_4            
     e(  6 -  6) =      3.45608  eV     1   --> G_3            
     e(  7 -  7) =      3.65299  eV     1   --> G_3            
     e(  8 -  8) =      3.65355  eV     1   --> G_4            
     e(  9 -  9) =      8.10560  eV     1   --> G_4            
     e( 10 - 10) =      8.10736  eV     1   --> G_3            
     e( 11 - 11) =      9.43545  eV     1   --> G_3            
     e( 12 - 12) =      9.44250  eV     1   --> G_4            
     e( 13 - 13) =     11.18008  eV     1   --> G_4            
[...]
     e(  5 -  5) =      3.75536  eV     1   --> G_4            
     e(  6 -  6) =      3.76117  eV     1   --> G_3            
     e(  7 -  7) =      3.82901  eV     1   --> G_3            
     e(  8 -  8) =      3.83034  eV     1   --> G_4            
     e(  9 -  9) =      8.30887  eV     1   --> G_4            
     e( 10 - 10) =      8.31012  eV     1   --> G_3            
     e( 11 - 11) =      9.59400  eV     1   --> G_3            
     e( 12 - 12) =      9.60067  eV     1   --> G_4            
     e( 13 - 13) =     10.91124  eV     1   --> G_4            
     e( 14 - 14) =     10.91277  eV     1   --> G_3            
     e( 15 - 16) =     11.44587  eV     2   --> G_3            
     e( 15 - 16) =     11.44587  eV     2   --> G_4            

 **************************************************************************

 **************************************************************************

                    xk=(   0.43333,   0.10833,   0.10833  )

     Band symmetry, C_s (m)     double point group:

     e(  1 -  1) =     -5.77622  eV     1   --> G_4            
     e(  2 -  2) =     -5.77609  eV     1   --> G_3            
     e(  3 -  3) =      2.13387  eV     1   --> G_3            
     e(  4 -  4) =      2.13670  eV     1   --> G_4            
     e(  5 -  5) =      3.89476  eV     1   --> G_4            
     e(  6 -  6) =      3.90105  eV     1   --> G_3            
     e(  7 -  7) =      3.92918  eV     1   --> G_3            
     e(  8 -  8) =      3.93122  eV     1   --> G_4            
     e(  9 -  9) =      8.41010  eV     1   --> G_4            
     e( 10 - 10) =      8.41107  eV     1   --> G_3            
     e( 11 - 11) =      9.65294  eV     1   --> G_3            
     e( 12 - 12) =      9.65920  eV     1   --> G_4            
     e( 13 - 13) =     10.82321  eV     1   --> G_4            
     e( 14 - 14) =     10.82475  eV     1   --> G_3            
     e( 15 - 16) =     11.27518  eV     2   --> G_3            
     e( 15 - 16) =     11.27518  eV     2   --> G_4            

 **************************************************************************

 **************************************************************************

                    xk=(   0.40000,   0.10000,   0.10000  )

     Band symmetry, C_s (m)     double point group:

     e(  1 -  1) =     -5.88069  eV     1   --> G_4            
     e(  2 -  2) =     -5.88058  eV     1   --> G_3            
     e(  3 -  3) =      2.38794  eV     1   --> G_3            
     e(  4 -  4) =      2.39059  eV     1   --> G_4            
     e(  5 -  5) =      4.01235  eV     1   --> G_4            
     e(  6 -  6) =      4.01561  eV     1   --> G_3            
     e(  7 -  7) =      4.05151  eV     1   --> G_4            
     e(  8 -  8) =      4.05227  eV     1   --> G_3            
     e(  9 -  9) =      8.51163  eV     1   --> G_4            
     e( 10 - 10) =      8.51233  eV     1   --> G_3            
     e( 11 - 11) =      9.67229  eV     1   --> G_3            
     e( 12 - 12) =      9.67785  eV     1   --> G_4            
     e( 13 - 13) =     10.77571  eV     1   --> G_4            
     e( 14 - 14) =     10.77700  eV     1   --> G_3            
     e( 15 - 16) =     11.09769  eV     2   --> G_3            
     e( 15 - 16) =     11.09769  eV     2   --> G_4            

 **************************************************************************

 **************************************************************************

                    xk=(   0.36667,   0.09167,   0.09167  )

     Band symmetry, C_s (m)     double point group:

     e(  1 -  2) =     -5.97861  eV     2   --> G_3            
     e(  1 -  2) =     -5.97861  eV     2   --> G_4            
     e(  3 -  3) =      2.64801  eV     1   --> G_3            
     e(  4 -  4) =      2.65051  eV     1   --> G_4            
     e(  5 -  5) =      4.11835  eV     1   --> G_4            
     e(  6 -  6) =      4.12005  eV     1   --> G_3            
     e(  7 -  7) =      4.17934  eV     1   --> G_4            
     e(  8 -  8) =      4.18140  eV     1   --> G_3            
     e(  9 -  9) =      8.61386  eV     1   --> G_4            
     e( 10 - 10) =      8.61430  eV     1   --> G_3            
     e( 11 - 11) =      9.64129  eV     1   --> G_3            
     e( 12 - 12) =      9.64589  eV     1   --> G_4            
     e( 13 - 13) =     10.75574  eV     1   --> G_4            
     e( 14 - 14) =     10.75653  eV     1   --> G_3            
     e( 15 - 15) =     10.91496  eV     1   --> G_4            
     e( 16 - 16) =     10.91510  eV     1   --> G_3            

 **************************************************************************

 **************************************************************************

                    xk=(   0.33333,   0.08333,   0.08333  )

     Band symmetry, C_s (m)     double point group:

     e(  1 -  2) =     -6.06947  eV     2   --> G_3            
     e(  1 -  2) =     -6.06947  eV     2   --> G_4            
     e(  3 -  3) =      2.91259  eV     1   --> G_3            
     e(  4 -  4) =      2.91494  eV     1   --> G_4            
     e(  5 -  5) =      4.22366  eV     1   --> G_4            
     e(  6 -  6) =      4.22485  eV     1   --> G_3            
     e(  7 -  7) =      4.30194  eV     1   --> G_4            
     e(  8 -  8) =      4.30427  eV     1   --> G_3            
     e(  9 -  9) =      8.71658  eV     1   --> G_4            
     e( 10 - 10) =      8.71676  eV     1   --> G_3            
     e( 11 - 11) =      9.56533  eV     1   --> G_3            
     e( 12 - 12) =      9.56892  eV     1   --> G_4            
     e( 13 - 13) =     10.72091  eV     1   --> G_3            
     e( 14 - 14) =     10.72239  eV     1   --> G_4            
     e( 15 - 15) =     10.72969  eV     1   --> G_4            
     e( 16 - 16) =     10.73172  eV     1   --> G_3            

 **************************************************************************

 **************************************************************************

                    xk=(   0.30000,   0.07500,   0.07500  )

     Band symmetry, C_s (m)     double point group:

     e(  1 -  2) =     -6.15281  eV     2   --> G_3            
     e(  1 -  2) =     -6.15281  eV     2   --> G_4            
     e(  3 -  3) =      3.17989  eV     1   --> G_3            
     e(  4 -  4) =      3.18210  eV     1   --> G_4            
     e(  5 -  5) =      4.32887  eV     1   --> G_4            
     e(  6 -  6) =      4.32983  eV     1   --> G_3            
     e(  7 -  7) =      4.41674  eV     1   --> G_4            
     e(  8 -  8) =      4.41902  eV     1   --> G_3            
     e(  9 - 10) =      8.81847  eV     2   --> G_3            
     e(  9 - 10) =      8.81847  eV     2   --> G_4            
     e( 11 - 11) =      9.45810  eV     1   --> G_3            
     e( 12 - 12) =      9.46074  eV     1   --> G_4            
     e( 13 - 13) =     10.54351  eV     1   --> G_3            
     e( 14 - 14) =     10.54366  eV     1   --> G_4            
     e( 15 - 15) =     10.63286  eV     1   --> G_4            
     e( 16 - 16) =     10.63342  eV     1   --> G_3            

 **************************************************************************

 **************************************************************************

                    xk=(   0.26667,   0.06667,   0.06667  )

     Band symmetry, C_s (m)     double point group:

     e(  1 -  2) =     -6.22825  eV     2   --> G_3            
     e(  1 -  2) =     -6.22825  eV     2   --> G_4            
     e(  3 -  3) =      3.44768  eV     1   --> G_3            
     e(  4 -  4) =      3.44975  eV     1   --> G_4            
     e(  5 -  5) =      4.43270  eV     1   --> G_4            
     e(  6 -  6) =      4.43355  eV     1   --> G_3            
     e(  7 -  7) =      4.52271  eV     1   --> G_4            
     e(  8 -  8) =      4.52481  eV     1   --> G_3            
     e(  9 -  9) =      8.91521  eV     1   --> G_3            
     e( 10 - 10) =      8.91571  eV     1   --> G_4            
     e( 11 - 11) =      9.33339  eV     1   --> G_3            
     e( 12 - 12) =      9.33503  eV     1   --> G_4            
     e( 13 - 14) =     10.36160  eV     2   --> G_3            
     e( 13 - 14) =     10.36160  eV     2   --> G_4            
     e( 15 - 15) =     10.47807  eV     1   --> G_4            
     e( 16 - 16) =     10.47853  eV     1   --> G_3            

 **************************************************************************

 **************************************************************************

                    xk=(   0.23333,   0.05833,   0.05833  )

     Band symmetry, C_s (m)     double point group:

     e(  1 -  2) =     -6.29548  eV     2   --> G_3            
     e(  1 -  2) =     -6.29548  eV     2   --> G_4            
     e(  3 -  3) =      3.71307  eV     1   --> G_3            
     e(  4 -  4) =      3.71499  eV     1   --> G_4            
     e(  5 -  5) =      4.53332  eV     1   --> G_4            
     e(  6 -  6) =      4.53412  eV     1   --> G_3            
     e(  7 -  7) =      4.61910  eV     1   --> G_4            
     e(  8 -  8) =      4.62094  eV     1   --> G_3            
     e(  9 -  9) =      8.98714  eV     1   --> G_3            
     e( 10 - 10) =      8.98861  eV     1   --> G_4            
     e( 11 - 11) =      9.21525  eV     1   --> G_3            
     e( 12 - 12) =      9.21539  eV     1   --> G_4            
     e( 13 - 14) =     10.18702  eV     2   --> G_3            
     e( 13 - 14) =     10.18702  eV     2   --> G_4            
     e( 15 - 15) =     10.28634  eV     1   --> G_4            
     e( 16 - 16) =     10.28675  eV     1   --> G_3            

 **************************************************************************

 **************************************************************************

                    xk=(   0.20000,   0.05000,   0.05000  )

     Band symmetry, C_s (m)     double point group:

     e(  1 -  2) =     -6.35422  eV     2   --> G_3            
     e(  1 -  2) =     -6.35422  eV     2   --> G_4            
     e(  3 -  3) =      3.97219  eV     1   --> G_3            
     e(  4 -  4) =      3.97396  eV     1   --> G_4            
     e(  5 -  5) =      4.62845  eV     1   --> G_4            
     e(  6 -  6) =      4.62925  eV     1   --> G_3            
     e(  7 -  7) =      4.70524  eV     1   --> G_4            
     e(  8 -  8) =      4.70678  eV     1   --> G_3            
     e(  9 -  9) =      8.94429  eV     1   --> G_3            
     e( 10 - 10) =      8.94632  eV     1   --> G_4            
     e( 11 - 11) =      9.19359  eV     1   --> G_4            
     e( 12 - 12) =      9.19451  eV     1   --> G_3            
     e( 13 - 14) =     10.02373  eV     2   --> G_3            
     e( 13 - 14) =     10.02373  eV     2   --> G_4            
     e( 15 - 15) =     10.09008  eV     1   --> G_4            
     e( 16 - 16) =     10.09039  eV     1   --> G_3            

 **************************************************************************

 **************************************************************************

                    xk=(   0.16667,   0.04167,   0.04167  )

     Band symmetry, C_s (m)     double point group:

     e(  1 -  2) =     -6.40426  eV     2   --> G_3            
     e(  1 -  2) =     -6.40426  eV     2   --> G_4            
     e(  3 -  3) =      4.21970  eV     1   --> G_3            
     e(  4 -  4) =      4.22130  eV     1   --> G_4            
     e(  5 -  5) =      4.71547  eV     1   --> G_4            
     e(  6 -  6) =      4.71630  eV     1   --> G_3            
     e(  7 -  7) =      4.78058  eV     1   --> G_4            
     e(  8 -  8) =      4.78174  eV     1   --> G_3            
     e(  9 -  9) =      8.79645  eV     1   --> G_3            
     e( 10 - 10) =      8.79771  eV     1   --> G_4            
     e( 11 - 11) =      9.26165  eV     1   --> G_4            
     e( 12 - 12) =      9.26226  eV     1   --> G_3            
     e( 13 - 13) =      9.87550  eV     1   --> G_3            
     e( 14 - 14) =      9.87560  eV     1   --> G_4            
     e( 15 - 15) =      9.91190  eV     1   --> G_4            
     e( 16 - 16) =      9.91211  eV     1   --> G_3            

 **************************************************************************

 **************************************************************************

                    xk=(   0.13333,   0.03333,   0.03333  )

     Band symmetry, C_s (m)     double point group:

     e(  1 -  2) =     -6.44544  eV     2   --> G_3            
     e(  1 -  2) =     -6.44544  eV     2   --> G_4            
     e(  3 -  3) =      4.44821  eV     1   --> G_3            
     e(  4 -  4) =      4.44961  eV     1   --> G_4            
     e(  5 -  5) =      4.79159  eV     1   --> G_4            
     e(  6 -  6) =      4.79247  eV     1   --> G_3            
     e(  7 -  7) =      4.84458  eV     1   --> G_4            
     e(  8 -  8) =      4.84535  eV     1   --> G_3            
     e(  9 -  9) =      8.62757  eV     1   --> G_3            
     e( 10 - 10) =      8.62826  eV     1   --> G_4            
     e( 11 - 11) =      9.33827  eV     1   --> G_4            
     e( 12 - 12) =      9.33867  eV     1   --> G_3            
     e( 13 - 13) =      9.74557  eV     1   --> G_3            
     e( 14 - 14) =      9.74573  eV     1   --> G_4            
     e( 15 - 15) =      9.76482  eV     1   --> G_4            
     e( 16 - 16) =      9.76495  eV     1   --> G_3            

 **************************************************************************

 **************************************************************************

                    xk=(   0.10000,   0.02500,   0.02500  )

     Band symmetry, C_s (m)     double point group:

     e(  1 -  2) =     -6.47760  eV     2   --> G_3            
     e(  1 -  2) =     -6.47760  eV     2   --> G_4            
     e(  3 -  3) =      4.64733  eV     1   --> G_3            
     e(  4 -  4) =      4.64848  eV     1   --> G_4            
     e(  5 -  5) =      4.85420  eV     1   --> G_4            
     e(  6 -  6) =      4.85508  eV     1   --> G_3            
     e(  7 -  7) =      4.89680  eV     1   --> G_4            
     e(  8 -  8) =      4.89719  eV     1   --> G_3            
     e(  9 -  9) =      8.46445  eV     1   --> G_3            
     e( 10 - 10) =      8.46476  eV     1   --> G_4            
     e( 11 - 11) =      9.40561  eV     1   --> G_4            
     e( 12 - 12) =      9.40587  eV     1   --> G_3            
     e( 13 - 13) =      9.63778  eV     1   --> G_3            
     e( 14 - 14) =      9.63796  eV     1   --> G_4            
     e( 15 - 16) =      9.65340  eV     2   --> G_3            
     e( 15 - 16) =      9.65340  eV     2   --> G_4            

 **************************************************************************

 **************************************************************************

                    xk=(   0.06667,   0.01667,   0.01667  )

     Band symmetry, C_s (m)     double point group:

     e(  1 -  2) =     -6.50064  eV     2   --> G_3            
     e(  1 -  2) =     -6.50064  eV     2   --> G_4            
     e(  3 -  3) =      4.80229  eV     1   --> G_3            
     e(  4 -  4) =      4.80309  eV     1   --> G_4            
     e(  5 -  5) =      4.90301  eV     1   --> G_4            
     e(  6 -  6) =      4.90374  eV     1   --> G_3            
     e(  7 -  7) =      4.93635  eV     1   --> G_4            
     e(  8 -  8) =      4.93648  eV     1   --> G_3            
     e(  9 - 10) =      8.32686  eV     2   --> G_3            
     e(  9 - 10) =      8.32686  eV     2   --> G_4            
     e( 11 - 11) =      9.45694  eV     1   --> G_4            
     e( 12 - 12) =      9.45711  eV     1   --> G_3            
     e( 13 - 13) =      9.55917  eV     1   --> G_3            
     e( 14 - 14) =      9.55931  eV     1   --> G_4            
     e( 15 - 16) =      9.57476  eV     2   --> G_3            
     e( 15 - 16) =      9.57476  eV     2   --> G_4            

 **************************************************************************

 **************************************************************************

                    xk=(   0.03333,   0.00833,   0.00833  )

     Band symmetry, C_s (m)     double point group:

     e(  1 -  2) =     -6.51450  eV     2   --> G_3            
     e(  1 -  2) =     -6.51450  eV     2   --> G_4            
     e(  3 -  3) =      4.89020  eV     1   --> G_3            
     e(  4 -  4) =      4.89040  eV     1   --> G_4            
     e(  5 -  5) =      4.94587  eV     1   --> G_4            
     e(  6 -  6) =      4.94606  eV     1   --> G_3            
     e(  7 -  8) =      4.96148  eV     2   --> G_3            
     e(  7 -  8) =      4.96148  eV     2   --> G_4            
     e(  9 - 10) =      8.23400  eV     2   --> G_3            
     e(  9 - 10) =      8.23400  eV     2   --> G_4            
     e( 11 - 12) =      9.48503  eV     2   --> G_3            
     e( 11 - 12) =      9.48503  eV     2   --> G_4            
     e( 13 - 14) =      9.51611  eV     2   --> G_3            
     e( 13 - 14) =      9.51611  eV     2   --> G_4            
     e( 15 - 16) =      9.52742  eV     2   --> G_3            
     e( 15 - 16) =      9.52742  eV     2   --> G_4            

 **************************************************************************

 **************************************************************************

                    xk=(   0.00000,   0.00000,   0.00000  )

     double point group T_d (-43m) 
     there are  8 classes and  3 irreducible representations
     the character table:

       E     -E    8C3   -8C3   3C2  6S4   -6S4  6s_d 
                               -3C2              -6s_d
G_6    2.00 -2.00  1.00 -1.00  0.00  1.41 -1.41  0.00
G_7    2.00 -2.00  1.00 -1.00  0.00 -1.41  1.41  0.00
G_8    4.00 -4.00 -1.00  1.00  0.00  0.00  0.00  0.00

     the symmetry operations in each class and the name of the first element:

     E             1
                                                                 
     -E           -1
                                                                 
     8C3           5    7    8    6   12    9   10   11
                                                                 
     -8C3         -5   -7   -8   -6  -12   -9  -10  -11
                                                                 
      3C2 -3C2     2   -2    3   -3    4   -4
                                                                 
     6S4          15   16   20   19   23   24
                                                                 
     -6S4        -15  -16  -20  -19  -23  -24
                                                                 
     6s_d -6s_d   13  -13  -14   14   17  -17  -18   18   21  -21   22  -22
                                                                 

     Band symmetry, T_d (-43m)  double point group:

     e(  1 -  2) =     -6.51912  eV     2   --> G_6  P_6       
     e(  3 -  4) =      4.91108  eV     2   --> G_7  P_7       
     e(  5 -  8) =      4.97014  eV     4   --> G_8  P_8       
     e(  9 - 10) =      8.20106  eV     2   --> G_6  P_6       
     e( 11 - 12) =      9.48482  eV     2   --> G_7  P_7       
     e( 13 - 16) =      9.51160  eV     4   --> G_8  P_8       

 **************************************************************************

     BANDS        :     12.28s CPU     14.56s WALL


   This run was terminated on:  15:19:29   1Apr2024            

=------------------------------------------------------------------------------=
   JOB DONE.
=------------------------------------------------------------------------------=
