
             +---------------------------------------------------+
             |                                                   |
             |                   WANNIER90                       |
             |                                                   |
             +---------------------------------------------------+
             |                                                   |
             |        Welcome to the Maximally-Localized         |
             |        Generalized Wannier Functions code         |
             |            http://www.wannier.org                 |
             |                                                   |
             |                                                   |
             |  Wannier90 Developer Group:                       |
             |    Giovanni Pizzi    (EPFL)                       |
             |    Valerio Vitale    (Cambridge)                  |
             |    David Vanderbilt  (Rutgers University)         |
             |    Nicola Marzari    (EPFL)                       |
             |    Ivo Souza         (Universidad del Pais Vasco) |
             |    Arash A. Mostofi  (Imperial College London)    |
             |    Jonathan R. Yates (University of Oxford)       |
             |                                                   |
             |  For the full list of Wannier90 3.x authors,      |
             |  please check the code documentation and the      |
             |  README on the GitHub page of the code            |
             |                                                   |
             |                                                   |
             |  Please cite                                      |
             |                                                   |
             |  [ref] "Wannier90 as a community code:            |
             |        new features and applications",            |
             |        G. Pizzi et al., J. Phys. Cond. Matt. 32,  |
             |        165902 (2020).                             |
             |        http://doi.org/10.1088/1361-648X/ab51ff    |
             |                                                   |
             |  in any publications arising from the use of      |
             |  this code. For the method please cite            |
             |                                                   |
             |  [ref] "Maximally Localized Generalised Wannier   |
             |         Functions for Composite Energy Bands"     |
             |         N. Marzari and D. Vanderbilt              |
             |         Phys. Rev. B 56 12847 (1997)              |
             |                                                   |
             |  [ref] "Maximally Localized Wannier Functions     |
             |         for Entangled Energy Bands"               |
             |         I. Souza, N. Marzari and D. Vanderbilt    |
             |         Phys. Rev. B 65 035109 (2001)             |
             |                                                   |
             |                                                   |
             | Copyright (c) 1996-2020                           |
             |        The Wannier90 Developer Group and          |
             |        individual contributors                    |
             |                                                   |
             |      Release: 3.1.0        5th March    2020      |
             |                                                   |
             | This program is free software; you can            |
             | redistribute it and/or modify it under the terms  |
             | of the GNU General Public License as published by |
             | the Free Software Foundation; either version 2 of |
             | the License, or (at your option) any later version|
             |                                                   |
             | This program is distributed in the hope that it   |
             | will be useful, but WITHOUT ANY WARRANTY; without |
             | even the implied warranty of MERCHANTABILITY or   |
             | FITNESS FOR A PARTICULAR PURPOSE. See the GNU     |
             | General Public License for more details.          |
             |                                                   |
             | You should have received a copy of the GNU General|
             | Public License along with this program; if not,   |
             | write to the Free Software Foundation, Inc.,      |
             | 675 Mass Ave, Cambridge, MA 02139, USA.           |
             |                                                   |
             +---------------------------------------------------+
             |    Execution started on 23Mar2024 at 18:31:55     |
             +---------------------------------------------------+
 
 ******************************************************************************
 * -> Using CODATA 2006 constant values                                       *
 *    (http://physics.nist.gov/cuu/Constants/index.html)                      *
 * -> Using Bohr value from CODATA                                            *
 ******************************************************************************
 

 Running in serial (with serial executable)

                                    ------
                                    SYSTEM
                                    ------

                              Lattice Vectors (Ang)
                    a_1    -2.735846   0.000000   2.735846
                    a_2     0.000000   2.735846   2.735846
                    a_3    -2.735846   2.735846   0.000000

                   Unit Cell Volume:      40.95482  (Ang^3)

                        Reciprocal-Space Vectors (Ang^-1)
                    b_1    -1.148307  -1.148307   1.148307
                    b_2     1.148307   1.148307   1.148307
                    b_3    -1.148307   1.148307  -1.148307
  
 *----------------------------------------------------------------------------*
 |   Site       Fractional Coordinate          Cartesian Coordinate (Ang)     |
 +----------------------------------------------------------------------------+
 | Al   1   0.00000   0.00000   0.00000   |    0.00000   0.00000   0.00000    |
 | P    1   0.25000   0.25000   0.25000   |   -1.36792   1.36792   1.36792    |
 *----------------------------------------------------------------------------*
                                -----------
                                PROJECTIONS
                                -----------
  
 +----------------------------------------------------------------------------+
 |     Frac. Coord.   l mr  r        z-axis               x-axis          Z/a |
 +----------------------------------------------------------------------------+
 |  0.00  0.00  0.00 -3  1  1  0.000  0.000  1.000  1.000  0.000  0.000   1.0 |
 |  0.00  0.00  0.00 -3  2  1  0.000  0.000  1.000  1.000  0.000  0.000   1.0 |
 |  0.00  0.00  0.00 -3  3  1  0.000  0.000  1.000  1.000  0.000  0.000   1.0 |
 |  0.00  0.00  0.00 -3  4  1  0.000  0.000  1.000  1.000  0.000  0.000   1.0 |
 |  0.25  0.25  0.25 -3  1  1  0.000  0.000  1.000  1.000  0.000  0.000   1.0 |
 |  0.25  0.25  0.25 -3  2  1  0.000  0.000  1.000  1.000  0.000  0.000   1.0 |
 |  0.25  0.25  0.25 -3  3  1  0.000  0.000  1.000  1.000  0.000  0.000   1.0 |
 |  0.25  0.25  0.25 -3  4  1  0.000  0.000  1.000  1.000  0.000  0.000   1.0 |
 +----------------------------------------------------------------------------+
  
                                ------------
                                K-POINT GRID
                                ------------
  
             Grid size =  8 x  8 x  8      Total points =  512
  
 *----------------------------------------------------------------------------*
 | k-point      Fractional Coordinate        Cartesian Coordinate (Ang^-1)    |
 +----------------------------------------------------------------------------+
 |     1    0.00000   0.00000   0.00000   |    0.00000   0.00000   0.00000    |
 |     2    0.00000   0.00000   0.12500   |   -0.14354   0.14354  -0.14354    |
 |     3    0.00000   0.00000   0.25000   |   -0.28708   0.28708  -0.28708    |
 |     4    0.00000   0.00000   0.37500   |   -0.43062   0.43062  -0.43062    |
 |     5    0.00000   0.00000   0.50000   |   -0.57415   0.57415  -0.57415    |
 |     6    0.00000   0.00000   0.62500   |   -0.71769   0.71769  -0.71769    |
 |     7    0.00000   0.00000   0.75000   |   -0.86123   0.86123  -0.86123    |
 |     8    0.00000   0.00000   0.87500   |   -1.00477   1.00477  -1.00477    |
 |     9    0.00000   0.12500   0.00000   |    0.14354   0.14354   0.14354    |
 |    10    0.00000   0.12500   0.12500   |    0.00000   0.28708   0.00000    |
 |    11    0.00000   0.12500   0.25000   |   -0.14354   0.43062  -0.14354    |
 |    12    0.00000   0.12500   0.37500   |   -0.28708   0.57415  -0.28708    |
 |    13    0.00000   0.12500   0.50000   |   -0.43062   0.71769  -0.43062    |
 |    14    0.00000   0.12500   0.62500   |   -0.57415   0.86123  -0.57415    |
 |    15    0.00000   0.12500   0.75000   |   -0.71769   1.00477  -0.71769    |
 |    16    0.00000   0.12500   0.87500   |   -0.86123   1.14831  -0.86123    |
 |    17    0.00000   0.25000   0.00000   |    0.28708   0.28708   0.28708    |
 |    18    0.00000   0.25000   0.12500   |    0.14354   0.43062   0.14354    |
 |    19    0.00000   0.25000   0.25000   |    0.00000   0.57415   0.00000    |
 |    20    0.00000   0.25000   0.37500   |   -0.14354   0.71769  -0.14354    |
 |    21    0.00000   0.25000   0.50000   |   -0.28708   0.86123  -0.28708    |
 |    22    0.00000   0.25000   0.62500   |   -0.43062   1.00477  -0.43062    |
 |    23    0.00000   0.25000   0.75000   |   -0.57415   1.14831  -0.57415    |
 |    24    0.00000   0.25000   0.87500   |   -0.71769   1.29185  -0.71769    |
 |    25    0.00000   0.37500   0.00000   |    0.43062   0.43062   0.43062    |
 |    26    0.00000   0.37500   0.12500   |    0.28708   0.57415   0.28708    |
 |    27    0.00000   0.37500   0.25000   |    0.14354   0.71769   0.14354    |
 |    28    0.00000   0.37500   0.37500   |    0.00000   0.86123   0.00000    |
 |    29    0.00000   0.37500   0.50000   |   -0.14354   1.00477  -0.14354    |
 |    30    0.00000   0.37500   0.62500   |   -0.28708   1.14831  -0.28708    |
 |    31    0.00000   0.37500   0.75000   |   -0.43062   1.29185  -0.43062    |
 |    32    0.00000   0.37500   0.87500   |   -0.57415   1.43538  -0.57415    |
 |    33    0.00000   0.50000   0.00000   |    0.57415   0.57415   0.57415    |
 |    34    0.00000   0.50000   0.12500   |    0.43062   0.71769   0.43062    |
 |    35    0.00000   0.50000   0.25000   |    0.28708   0.86123   0.28708    |
 |    36    0.00000   0.50000   0.37500   |    0.14354   1.00477   0.14354    |
 |    37    0.00000   0.50000   0.50000   |    0.00000   1.14831   0.00000    |
 |    38    0.00000   0.50000   0.62500   |   -0.14354   1.29185  -0.14354    |
 |    39    0.00000   0.50000   0.75000   |   -0.28708   1.43538  -0.28708    |
 |    40    0.00000   0.50000   0.87500   |   -0.43062   1.57892  -0.43062    |
 |    41    0.00000   0.62500   0.00000   |    0.71769   0.71769   0.71769    |
 |    42    0.00000   0.62500   0.12500   |    0.57415   0.86123   0.57415    |
 |    43    0.00000   0.62500   0.25000   |    0.43062   1.00477   0.43062    |
 |    44    0.00000   0.62500   0.37500   |    0.28708   1.14831   0.28708    |
 |    45    0.00000   0.62500   0.50000   |    0.14354   1.29185   0.14354    |
 |    46    0.00000   0.62500   0.62500   |    0.00000   1.43538   0.00000    |
 |    47    0.00000   0.62500   0.75000   |   -0.14354   1.57892  -0.14354    |
 |    48    0.00000   0.62500   0.87500   |   -0.28708   1.72246  -0.28708    |
 |    49    0.00000   0.75000   0.00000   |    0.86123   0.86123   0.86123    |
 |    50    0.00000   0.75000   0.12500   |    0.71769   1.00477   0.71769    |
 |    51    0.00000   0.75000   0.25000   |    0.57415   1.14831   0.57415    |
 |    52    0.00000   0.75000   0.37500   |    0.43062   1.29185   0.43062    |
 |    53    0.00000   0.75000   0.50000   |    0.28708   1.43538   0.28708    |
 |    54    0.00000   0.75000   0.62500   |    0.14354   1.57892   0.14354    |
 |    55    0.00000   0.75000   0.75000   |    0.00000   1.72246   0.00000    |
 |    56    0.00000   0.75000   0.87500   |   -0.14354   1.86600  -0.14354    |
 |    57    0.00000   0.87500   0.00000   |    1.00477   1.00477   1.00477    |
 |    58    0.00000   0.87500   0.12500   |    0.86123   1.14831   0.86123    |
 |    59    0.00000   0.87500   0.25000   |    0.71769   1.29185   0.71769    |
 |    60    0.00000   0.87500   0.37500   |    0.57415   1.43538   0.57415    |
 |    61    0.00000   0.87500   0.50000   |    0.43062   1.57892   0.43062    |
 |    62    0.00000   0.87500   0.62500   |    0.28708   1.72246   0.28708    |
 |    63    0.00000   0.87500   0.75000   |    0.14354   1.86600   0.14354    |
 |    64    0.00000   0.87500   0.87500   |    0.00000   2.00954   0.00000    |
 |    65    0.12500   0.00000   0.00000   |   -0.14354  -0.14354   0.14354    |
 |    66    0.12500   0.00000   0.12500   |   -0.28708   0.00000   0.00000    |
 |    67    0.12500   0.00000   0.25000   |   -0.43062   0.14354  -0.14354    |
 |    68    0.12500   0.00000   0.37500   |   -0.57415   0.28708  -0.28708    |
 |    69    0.12500   0.00000   0.50000   |   -0.71769   0.43062  -0.43062    |
 |    70    0.12500   0.00000   0.62500   |   -0.86123   0.57415  -0.57415    |
 |    71    0.12500   0.00000   0.75000   |   -1.00477   0.71769  -0.71769    |
 |    72    0.12500   0.00000   0.87500   |   -1.14831   0.86123  -0.86123    |
 |    73    0.12500   0.12500   0.00000   |    0.00000   0.00000   0.28708    |
 |    74    0.12500   0.12500   0.12500   |   -0.14354   0.14354   0.14354    |
 |    75    0.12500   0.12500   0.25000   |   -0.28708   0.28708   0.00000    |
 |    76    0.12500   0.12500   0.37500   |   -0.43062   0.43062  -0.14354    |
 |    77    0.12500   0.12500   0.50000   |   -0.57415   0.57415  -0.28708    |
 |    78    0.12500   0.12500   0.62500   |   -0.71769   0.71769  -0.43062    |
 |    79    0.12500   0.12500   0.75000   |   -0.86123   0.86123  -0.57415    |
 |    80    0.12500   0.12500   0.87500   |   -1.00477   1.00477  -0.71769    |
 |    81    0.12500   0.25000   0.00000   |    0.14354   0.14354   0.43062    |
 |    82    0.12500   0.25000   0.12500   |    0.00000   0.28708   0.28708    |
 |    83    0.12500   0.25000   0.25000   |   -0.14354   0.43062   0.14354    |
 |    84    0.12500   0.25000   0.37500   |   -0.28708   0.57415   0.00000    |
 |    85    0.12500   0.25000   0.50000   |   -0.43062   0.71769  -0.14354    |
 |    86    0.12500   0.25000   0.62500   |   -0.57415   0.86123  -0.28708    |
 |    87    0.12500   0.25000   0.75000   |   -0.71769   1.00477  -0.43062    |
 |    88    0.12500   0.25000   0.87500   |   -0.86123   1.14831  -0.57415    |
 |    89    0.12500   0.37500   0.00000   |    0.28708   0.28708   0.57415    |
 |    90    0.12500   0.37500   0.12500   |    0.14354   0.43062   0.43062    |
 |    91    0.12500   0.37500   0.25000   |    0.00000   0.57415   0.28708    |
 |    92    0.12500   0.37500   0.37500   |   -0.14354   0.71769   0.14354    |
 |    93    0.12500   0.37500   0.50000   |   -0.28708   0.86123   0.00000    |
 |    94    0.12500   0.37500   0.62500   |   -0.43062   1.00477  -0.14354    |
 |    95    0.12500   0.37500   0.75000   |   -0.57415   1.14831  -0.28708    |
 |    96    0.12500   0.37500   0.87500   |   -0.71769   1.29185  -0.43062    |
 |    97    0.12500   0.50000   0.00000   |    0.43062   0.43062   0.71769    |
 |    98    0.12500   0.50000   0.12500   |    0.28708   0.57415   0.57415    |
 |    99    0.12500   0.50000   0.25000   |    0.14354   0.71769   0.43062    |
 |   100    0.12500   0.50000   0.37500   |    0.00000   0.86123   0.28708    |
 |   101    0.12500   0.50000   0.50000   |   -0.14354   1.00477   0.14354    |
 |   102    0.12500   0.50000   0.62500   |   -0.28708   1.14831   0.00000    |
 |   103    0.12500   0.50000   0.75000   |   -0.43062   1.29185  -0.14354    |
 |   104    0.12500   0.50000   0.87500   |   -0.57415   1.43538  -0.28708    |
 |   105    0.12500   0.62500   0.00000   |    0.57415   0.57415   0.86123    |
 |   106    0.12500   0.62500   0.12500   |    0.43062   0.71769   0.71769    |
 |   107    0.12500   0.62500   0.25000   |    0.28708   0.86123   0.57415    |
 |   108    0.12500   0.62500   0.37500   |    0.14354   1.00477   0.43062    |
 |   109    0.12500   0.62500   0.50000   |    0.00000   1.14831   0.28708    |
 |   110    0.12500   0.62500   0.62500   |   -0.14354   1.29185   0.14354    |
 |   111    0.12500   0.62500   0.75000   |   -0.28708   1.43538  -0.00000    |
 |   112    0.12500   0.62500   0.87500   |   -0.43062   1.57892  -0.14354    |
 |   113    0.12500   0.75000   0.00000   |    0.71769   0.71769   1.00477    |
 |   114    0.12500   0.75000   0.12500   |    0.57415   0.86123   0.86123    |
 |   115    0.12500   0.75000   0.25000   |    0.43062   1.00477   0.71769    |
 |   116    0.12500   0.75000   0.37500   |    0.28708   1.14831   0.57415    |
 |   117    0.12500   0.75000   0.50000   |    0.14354   1.29185   0.43062    |
 |   118    0.12500   0.75000   0.62500   |    0.00000   1.43538   0.28708    |
 |   119    0.12500   0.75000   0.75000   |   -0.14354   1.57892   0.14354    |
 |   120    0.12500   0.75000   0.87500   |   -0.28708   1.72246   0.00000    |
 |   121    0.12500   0.87500   0.00000   |    0.86123   0.86123   1.14831    |
 |   122    0.12500   0.87500   0.12500   |    0.71769   1.00477   1.00477    |
 |   123    0.12500   0.87500   0.25000   |    0.57415   1.14831   0.86123    |
 |   124    0.12500   0.87500   0.37500   |    0.43062   1.29185   0.71769    |
 |   125    0.12500   0.87500   0.50000   |    0.28708   1.43538   0.57415    |
 |   126    0.12500   0.87500   0.62500   |    0.14354   1.57892   0.43062    |
 |   127    0.12500   0.87500   0.75000   |   -0.00000   1.72246   0.28708    |
 |   128    0.12500   0.87500   0.87500   |   -0.14354   1.86600   0.14354    |
 |   129    0.25000   0.00000   0.00000   |   -0.28708  -0.28708   0.28708    |
 |   130    0.25000   0.00000   0.12500   |   -0.43062  -0.14354   0.14354    |
 |   131    0.25000   0.00000   0.25000   |   -0.57415   0.00000   0.00000    |
 |   132    0.25000   0.00000   0.37500   |   -0.71769   0.14354  -0.14354    |
 |   133    0.25000   0.00000   0.50000   |   -0.86123   0.28708  -0.28708    |
 |   134    0.25000   0.00000   0.62500   |   -1.00477   0.43062  -0.43062    |
 |   135    0.25000   0.00000   0.75000   |   -1.14831   0.57415  -0.57415    |
 |   136    0.25000   0.00000   0.87500   |   -1.29185   0.71769  -0.71769    |
 |   137    0.25000   0.12500   0.00000   |   -0.14354  -0.14354   0.43062    |
 |   138    0.25000   0.12500   0.12500   |   -0.28708   0.00000   0.28708    |
 |   139    0.25000   0.12500   0.25000   |   -0.43062   0.14354   0.14354    |
 |   140    0.25000   0.12500   0.37500   |   -0.57415   0.28708   0.00000    |
 |   141    0.25000   0.12500   0.50000   |   -0.71769   0.43062  -0.14354    |
 |   142    0.25000   0.12500   0.62500   |   -0.86123   0.57415  -0.28708    |
 |   143    0.25000   0.12500   0.75000   |   -1.00477   0.71769  -0.43062    |
 |   144    0.25000   0.12500   0.87500   |   -1.14831   0.86123  -0.57415    |
 |   145    0.25000   0.25000   0.00000   |    0.00000   0.00000   0.57415    |
 |   146    0.25000   0.25000   0.12500   |   -0.14354   0.14354   0.43062    |
 |   147    0.25000   0.25000   0.25000   |   -0.28708   0.28708   0.28708    |
 |   148    0.25000   0.25000   0.37500   |   -0.43062   0.43062   0.14354    |
 |   149    0.25000   0.25000   0.50000   |   -0.57415   0.57415   0.00000    |
 |   150    0.25000   0.25000   0.62500   |   -0.71769   0.71769  -0.14354    |
 |   151    0.25000   0.25000   0.75000   |   -0.86123   0.86123  -0.28708    |
 |   152    0.25000   0.25000   0.87500   |   -1.00477   1.00477  -0.43062    |
 |   153    0.25000   0.37500   0.00000   |    0.14354   0.14354   0.71769    |
 |   154    0.25000   0.37500   0.12500   |    0.00000   0.28708   0.57415    |
 |   155    0.25000   0.37500   0.25000   |   -0.14354   0.43062   0.43062    |
 |   156    0.25000   0.37500   0.37500   |   -0.28708   0.57415   0.28708    |
 |   157    0.25000   0.37500   0.50000   |   -0.43062   0.71769   0.14354    |
 |   158    0.25000   0.37500   0.62500   |   -0.57415   0.86123   0.00000    |
 |   159    0.25000   0.37500   0.75000   |   -0.71769   1.00477  -0.14354    |
 |   160    0.25000   0.37500   0.87500   |   -0.86123   1.14831  -0.28708    |
 |   161    0.25000   0.50000   0.00000   |    0.28708   0.28708   0.86123    |
 |   162    0.25000   0.50000   0.12500   |    0.14354   0.43062   0.71769    |
 |   163    0.25000   0.50000   0.25000   |    0.00000   0.57415   0.57415    |
 |   164    0.25000   0.50000   0.37500   |   -0.14354   0.71769   0.43062    |
 |   165    0.25000   0.50000   0.50000   |   -0.28708   0.86123   0.28708    |
 |   166    0.25000   0.50000   0.62500   |   -0.43062   1.00477   0.14354    |
 |   167    0.25000   0.50000   0.75000   |   -0.57415   1.14831   0.00000    |
 |   168    0.25000   0.50000   0.87500   |   -0.71769   1.29185  -0.14354    |
 |   169    0.25000   0.62500   0.00000   |    0.43062   0.43062   1.00477    |
 |   170    0.25000   0.62500   0.12500   |    0.28708   0.57415   0.86123    |
 |   171    0.25000   0.62500   0.25000   |    0.14354   0.71769   0.71769    |
 |   172    0.25000   0.62500   0.37500   |   -0.00000   0.86123   0.57415    |
 |   173    0.25000   0.62500   0.50000   |   -0.14354   1.00477   0.43062    |
 |   174    0.25000   0.62500   0.62500   |   -0.28708   1.14831   0.28708    |
 |   175    0.25000   0.62500   0.75000   |   -0.43062   1.29185   0.14354    |
 |   176    0.25000   0.62500   0.87500   |   -0.57415   1.43538   0.00000    |
 |   177    0.25000   0.75000   0.00000   |    0.57415   0.57415   1.14831    |
 |   178    0.25000   0.75000   0.12500   |    0.43062   0.71769   1.00477    |
 |   179    0.25000   0.75000   0.25000   |    0.28708   0.86123   0.86123    |
 |   180    0.25000   0.75000   0.37500   |    0.14354   1.00477   0.71769    |
 |   181    0.25000   0.75000   0.50000   |    0.00000   1.14831   0.57415    |
 |   182    0.25000   0.75000   0.62500   |   -0.14354   1.29185   0.43062    |
 |   183    0.25000   0.75000   0.75000   |   -0.28708   1.43538   0.28708    |
 |   184    0.25000   0.75000   0.87500   |   -0.43062   1.57892   0.14354    |
 |   185    0.25000   0.87500   0.00000   |    0.71769   0.71769   1.29185    |
 |   186    0.25000   0.87500   0.12500   |    0.57415   0.86123   1.14831    |
 |   187    0.25000   0.87500   0.25000   |    0.43062   1.00477   1.00477    |
 |   188    0.25000   0.87500   0.37500   |    0.28708   1.14831   0.86123    |
 |   189    0.25000   0.87500   0.50000   |    0.14354   1.29185   0.71769    |
 |   190    0.25000   0.87500   0.62500   |    0.00000   1.43538   0.57415    |
 |   191    0.25000   0.87500   0.75000   |   -0.14354   1.57892   0.43062    |
 |   192    0.25000   0.87500   0.87500   |   -0.28708   1.72246   0.28708    |
 |   193    0.37500   0.00000   0.00000   |   -0.43062  -0.43062   0.43062    |
 |   194    0.37500   0.00000   0.12500   |   -0.57415  -0.28708   0.28708    |
 |   195    0.37500   0.00000   0.25000   |   -0.71769  -0.14354   0.14354    |
 |   196    0.37500   0.00000   0.37500   |   -0.86123   0.00000   0.00000    |
 |   197    0.37500   0.00000   0.50000   |   -1.00477   0.14354  -0.14354    |
 |   198    0.37500   0.00000   0.62500   |   -1.14831   0.28708  -0.28708    |
 |   199    0.37500   0.00000   0.75000   |   -1.29185   0.43062  -0.43062    |
 |   200    0.37500   0.00000   0.87500   |   -1.43538   0.57415  -0.57415    |
 |   201    0.37500   0.12500   0.00000   |   -0.28708  -0.28708   0.57415    |
 |   202    0.37500   0.12500   0.12500   |   -0.43062  -0.14354   0.43062    |
 |   203    0.37500   0.12500   0.25000   |   -0.57415  -0.00000   0.28708    |
 |   204    0.37500   0.12500   0.37500   |   -0.71769   0.14354   0.14354    |
 |   205    0.37500   0.12500   0.50000   |   -0.86123   0.28708   0.00000    |
 |   206    0.37500   0.12500   0.62500   |   -1.00477   0.43062  -0.14354    |
 |   207    0.37500   0.12500   0.75000   |   -1.14831   0.57415  -0.28708    |
 |   208    0.37500   0.12500   0.87500   |   -1.29185   0.71769  -0.43062    |
 |   209    0.37500   0.25000   0.00000   |   -0.14354  -0.14354   0.71769    |
 |   210    0.37500   0.25000   0.12500   |   -0.28708  -0.00000   0.57415    |
 |   211    0.37500   0.25000   0.25000   |   -0.43062   0.14354   0.43062    |
 |   212    0.37500   0.25000   0.37500   |   -0.57415   0.28708   0.28708    |
 |   213    0.37500   0.25000   0.50000   |   -0.71769   0.43062   0.14354    |
 |   214    0.37500   0.25000   0.62500   |   -0.86123   0.57415   0.00000    |
 |   215    0.37500   0.25000   0.75000   |   -1.00477   0.71769  -0.14354    |
 |   216    0.37500   0.25000   0.87500   |   -1.14831   0.86123  -0.28708    |
 |   217    0.37500   0.37500   0.00000   |    0.00000   0.00000   0.86123    |
 |   218    0.37500   0.37500   0.12500   |   -0.14354   0.14354   0.71769    |
 |   219    0.37500   0.37500   0.25000   |   -0.28708   0.28708   0.57415    |
 |   220    0.37500   0.37500   0.37500   |   -0.43062   0.43062   0.43062    |
 |   221    0.37500   0.37500   0.50000   |   -0.57415   0.57415   0.28708    |
 |   222    0.37500   0.37500   0.62500   |   -0.71769   0.71769   0.14354    |
 |   223    0.37500   0.37500   0.75000   |   -0.86123   0.86123   0.00000    |
 |   224    0.37500   0.37500   0.87500   |   -1.00477   1.00477  -0.14354    |
 |   225    0.37500   0.50000   0.00000   |    0.14354   0.14354   1.00477    |
 |   226    0.37500   0.50000   0.12500   |   -0.00000   0.28708   0.86123    |
 |   227    0.37500   0.50000   0.25000   |   -0.14354   0.43062   0.71769    |
 |   228    0.37500   0.50000   0.37500   |   -0.28708   0.57415   0.57415    |
 |   229    0.37500   0.50000   0.50000   |   -0.43062   0.71769   0.43062    |
 |   230    0.37500   0.50000   0.62500   |   -0.57415   0.86123   0.28708    |
 |   231    0.37500   0.50000   0.75000   |   -0.71769   1.00477   0.14354    |
 |   232    0.37500   0.50000   0.87500   |   -0.86123   1.14831   0.00000    |
 |   233    0.37500   0.62500   0.00000   |    0.28708   0.28708   1.14831    |
 |   234    0.37500   0.62500   0.12500   |    0.14354   0.43062   1.00477    |
 |   235    0.37500   0.62500   0.25000   |   -0.00000   0.57415   0.86123    |
 |   236    0.37500   0.62500   0.37500   |   -0.14354   0.71769   0.71769    |
 |   237    0.37500   0.62500   0.50000   |   -0.28708   0.86123   0.57415    |
 |   238    0.37500   0.62500   0.62500   |   -0.43062   1.00477   0.43062    |
 |   239    0.37500   0.62500   0.75000   |   -0.57415   1.14831   0.28708    |
 |   240    0.37500   0.62500   0.87500   |   -0.71769   1.29185   0.14354    |
 |   241    0.37500   0.75000   0.00000   |    0.43062   0.43062   1.29185    |
 |   242    0.37500   0.75000   0.12500   |    0.28708   0.57415   1.14831    |
 |   243    0.37500   0.75000   0.25000   |    0.14354   0.71769   1.00477    |
 |   244    0.37500   0.75000   0.37500   |    0.00000   0.86123   0.86123    |
 |   245    0.37500   0.75000   0.50000   |   -0.14354   1.00477   0.71769    |
 |   246    0.37500   0.75000   0.62500   |   -0.28708   1.14831   0.57415    |
 |   247    0.37500   0.75000   0.75000   |   -0.43062   1.29185   0.43062    |
 |   248    0.37500   0.75000   0.87500   |   -0.57415   1.43538   0.28708    |
 |   249    0.37500   0.87500   0.00000   |    0.57415   0.57415   1.43538    |
 |   250    0.37500   0.87500   0.12500   |    0.43062   0.71769   1.29185    |
 |   251    0.37500   0.87500   0.25000   |    0.28708   0.86123   1.14831    |
 |   252    0.37500   0.87500   0.37500   |    0.14354   1.00477   1.00477    |
 |   253    0.37500   0.87500   0.50000   |   -0.00000   1.14831   0.86123    |
 |   254    0.37500   0.87500   0.62500   |   -0.14354   1.29185   0.71769    |
 |   255    0.37500   0.87500   0.75000   |   -0.28708   1.43538   0.57415    |
 |   256    0.37500   0.87500   0.87500   |   -0.43062   1.57892   0.43062    |
 |   257    0.50000   0.00000   0.00000   |   -0.57415  -0.57415   0.57415    |
 |   258    0.50000   0.00000   0.12500   |   -0.71769  -0.43062   0.43062    |
 |   259    0.50000   0.00000   0.25000   |   -0.86123  -0.28708   0.28708    |
 |   260    0.50000   0.00000   0.37500   |   -1.00477  -0.14354   0.14354    |
 |   261    0.50000   0.00000   0.50000   |   -1.14831   0.00000   0.00000    |
 |   262    0.50000   0.00000   0.62500   |   -1.29185   0.14354  -0.14354    |
 |   263    0.50000   0.00000   0.75000   |   -1.43538   0.28708  -0.28708    |
 |   264    0.50000   0.00000   0.87500   |   -1.57892   0.43062  -0.43062    |
 |   265    0.50000   0.12500   0.00000   |   -0.43062  -0.43062   0.71769    |
 |   266    0.50000   0.12500   0.12500   |   -0.57415  -0.28708   0.57415    |
 |   267    0.50000   0.12500   0.25000   |   -0.71769  -0.14354   0.43062    |
 |   268    0.50000   0.12500   0.37500   |   -0.86123   0.00000   0.28708    |
 |   269    0.50000   0.12500   0.50000   |   -1.00477   0.14354   0.14354    |
 |   270    0.50000   0.12500   0.62500   |   -1.14831   0.28708   0.00000    |
 |   271    0.50000   0.12500   0.75000   |   -1.29185   0.43062  -0.14354    |
 |   272    0.50000   0.12500   0.87500   |   -1.43538   0.57415  -0.28708    |
 |   273    0.50000   0.25000   0.00000   |   -0.28708  -0.28708   0.86123    |
 |   274    0.50000   0.25000   0.12500   |   -0.43062  -0.14354   0.71769    |
 |   275    0.50000   0.25000   0.25000   |   -0.57415   0.00000   0.57415    |
 |   276    0.50000   0.25000   0.37500   |   -0.71769   0.14354   0.43062    |
 |   277    0.50000   0.25000   0.50000   |   -0.86123   0.28708   0.28708    |
 |   278    0.50000   0.25000   0.62500   |   -1.00477   0.43062   0.14354    |
 |   279    0.50000   0.25000   0.75000   |   -1.14831   0.57415   0.00000    |
 |   280    0.50000   0.25000   0.87500   |   -1.29185   0.71769  -0.14354    |
 |   281    0.50000   0.37500   0.00000   |   -0.14354  -0.14354   1.00477    |
 |   282    0.50000   0.37500   0.12500   |   -0.28708   0.00000   0.86123    |
 |   283    0.50000   0.37500   0.25000   |   -0.43062   0.14354   0.71769    |
 |   284    0.50000   0.37500   0.37500   |   -0.57415   0.28708   0.57415    |
 |   285    0.50000   0.37500   0.50000   |   -0.71769   0.43062   0.43062    |
 |   286    0.50000   0.37500   0.62500   |   -0.86123   0.57415   0.28708    |
 |   287    0.50000   0.37500   0.75000   |   -1.00477   0.71769   0.14354    |
 |   288    0.50000   0.37500   0.87500   |   -1.14831   0.86123   0.00000    |
 |   289    0.50000   0.50000   0.00000   |    0.00000   0.00000   1.14831    |
 |   290    0.50000   0.50000   0.12500   |   -0.14354   0.14354   1.00477    |
 |   291    0.50000   0.50000   0.25000   |   -0.28708   0.28708   0.86123    |
 |   292    0.50000   0.50000   0.37500   |   -0.43062   0.43062   0.71769    |
 |   293    0.50000   0.50000   0.50000   |   -0.57415   0.57415   0.57415    |
 |   294    0.50000   0.50000   0.62500   |   -0.71769   0.71769   0.43062    |
 |   295    0.50000   0.50000   0.75000   |   -0.86123   0.86123   0.28708    |
 |   296    0.50000   0.50000   0.87500   |   -1.00477   1.00477   0.14354    |
 |   297    0.50000   0.62500   0.00000   |    0.14354   0.14354   1.29185    |
 |   298    0.50000   0.62500   0.12500   |   -0.00000   0.28708   1.14831    |
 |   299    0.50000   0.62500   0.25000   |   -0.14354   0.43062   1.00477    |
 |   300    0.50000   0.62500   0.37500   |   -0.28708   0.57415   0.86123    |
 |   301    0.50000   0.62500   0.50000   |   -0.43062   0.71769   0.71769    |
 |   302    0.50000   0.62500   0.62500   |   -0.57415   0.86123   0.57415    |
 |   303    0.50000   0.62500   0.75000   |   -0.71769   1.00477   0.43062    |
 |   304    0.50000   0.62500   0.87500   |   -0.86123   1.14831   0.28708    |
 |   305    0.50000   0.75000   0.00000   |    0.28708   0.28708   1.43538    |
 |   306    0.50000   0.75000   0.12500   |    0.14354   0.43062   1.29185    |
 |   307    0.50000   0.75000   0.25000   |    0.00000   0.57415   1.14831    |
 |   308    0.50000   0.75000   0.37500   |   -0.14354   0.71769   1.00477    |
 |   309    0.50000   0.75000   0.50000   |   -0.28708   0.86123   0.86123    |
 |   310    0.50000   0.75000   0.62500   |   -0.43062   1.00477   0.71769    |
 |   311    0.50000   0.75000   0.75000   |   -0.57415   1.14831   0.57415    |
 |   312    0.50000   0.75000   0.87500   |   -0.71769   1.29185   0.43062    |
 |   313    0.50000   0.87500   0.00000   |    0.43062   0.43062   1.57892    |
 |   314    0.50000   0.87500   0.12500   |    0.28708   0.57415   1.43538    |
 |   315    0.50000   0.87500   0.25000   |    0.14354   0.71769   1.29185    |
 |   316    0.50000   0.87500   0.37500   |   -0.00000   0.86123   1.14831    |
 |   317    0.50000   0.87500   0.50000   |   -0.14354   1.00477   1.00477    |
 |   318    0.50000   0.87500   0.62500   |   -0.28708   1.14831   0.86123    |
 |   319    0.50000   0.87500   0.75000   |   -0.43062   1.29185   0.71769    |
 |   320    0.50000   0.87500   0.87500   |   -0.57415   1.43538   0.57415    |
 |   321    0.62500   0.00000   0.00000   |   -0.71769  -0.71769   0.71769    |
 |   322    0.62500   0.00000   0.12500   |   -0.86123  -0.57415   0.57415    |
 |   323    0.62500   0.00000   0.25000   |   -1.00477  -0.43062   0.43062    |
 |   324    0.62500   0.00000   0.37500   |   -1.14831  -0.28708   0.28708    |
 |   325    0.62500   0.00000   0.50000   |   -1.29185  -0.14354   0.14354    |
 |   326    0.62500   0.00000   0.62500   |   -1.43538   0.00000   0.00000    |
 |   327    0.62500   0.00000   0.75000   |   -1.57892   0.14354  -0.14354    |
 |   328    0.62500   0.00000   0.87500   |   -1.72246   0.28708  -0.28708    |
 |   329    0.62500   0.12500   0.00000   |   -0.57415  -0.57415   0.86123    |
 |   330    0.62500   0.12500   0.12500   |   -0.71769  -0.43062   0.71769    |
 |   331    0.62500   0.12500   0.25000   |   -0.86123  -0.28708   0.57415    |
 |   332    0.62500   0.12500   0.37500   |   -1.00477  -0.14354   0.43062    |
 |   333    0.62500   0.12500   0.50000   |   -1.14831   0.00000   0.28708    |
 |   334    0.62500   0.12500   0.62500   |   -1.29185   0.14354   0.14354    |
 |   335    0.62500   0.12500   0.75000   |   -1.43538   0.28708  -0.00000    |
 |   336    0.62500   0.12500   0.87500   |   -1.57892   0.43062  -0.14354    |
 |   337    0.62500   0.25000   0.00000   |   -0.43062  -0.43062   1.00477    |
 |   338    0.62500   0.25000   0.12500   |   -0.57415  -0.28708   0.86123    |
 |   339    0.62500   0.25000   0.25000   |   -0.71769  -0.14354   0.71769    |
 |   340    0.62500   0.25000   0.37500   |   -0.86123   0.00000   0.57415    |
 |   341    0.62500   0.25000   0.50000   |   -1.00477   0.14354   0.43062    |
 |   342    0.62500   0.25000   0.62500   |   -1.14831   0.28708   0.28708    |
 |   343    0.62500   0.25000   0.75000   |   -1.29185   0.43062   0.14354    |
 |   344    0.62500   0.25000   0.87500   |   -1.43538   0.57415   0.00000    |
 |   345    0.62500   0.37500   0.00000   |   -0.28708  -0.28708   1.14831    |
 |   346    0.62500   0.37500   0.12500   |   -0.43062  -0.14354   1.00477    |
 |   347    0.62500   0.37500   0.25000   |   -0.57415   0.00000   0.86123    |
 |   348    0.62500   0.37500   0.37500   |   -0.71769   0.14354   0.71769    |
 |   349    0.62500   0.37500   0.50000   |   -0.86123   0.28708   0.57415    |
 |   350    0.62500   0.37500   0.62500   |   -1.00477   0.43062   0.43062    |
 |   351    0.62500   0.37500   0.75000   |   -1.14831   0.57415   0.28708    |
 |   352    0.62500   0.37500   0.87500   |   -1.29185   0.71769   0.14354    |
 |   353    0.62500   0.50000   0.00000   |   -0.14354  -0.14354   1.29185    |
 |   354    0.62500   0.50000   0.12500   |   -0.28708   0.00000   1.14831    |
 |   355    0.62500   0.50000   0.25000   |   -0.43062   0.14354   1.00477    |
 |   356    0.62500   0.50000   0.37500   |   -0.57415   0.28708   0.86123    |
 |   357    0.62500   0.50000   0.50000   |   -0.71769   0.43062   0.71769    |
 |   358    0.62500   0.50000   0.62500   |   -0.86123   0.57415   0.57415    |
 |   359    0.62500   0.50000   0.75000   |   -1.00477   0.71769   0.43062    |
 |   360    0.62500   0.50000   0.87500   |   -1.14831   0.86123   0.28708    |
 |   361    0.62500   0.62500   0.00000   |    0.00000   0.00000   1.43538    |
 |   362    0.62500   0.62500   0.12500   |   -0.14354   0.14354   1.29185    |
 |   363    0.62500   0.62500   0.25000   |   -0.28708   0.28708   1.14831    |
 |   364    0.62500   0.62500   0.37500   |   -0.43062   0.43062   1.00477    |
 |   365    0.62500   0.62500   0.50000   |   -0.57415   0.57415   0.86123    |
 |   366    0.62500   0.62500   0.62500   |   -0.71769   0.71769   0.71769    |
 |   367    0.62500   0.62500   0.75000   |   -0.86123   0.86123   0.57415    |
 |   368    0.62500   0.62500   0.87500   |   -1.00477   1.00477   0.43062    |
 |   369    0.62500   0.75000   0.00000   |    0.14354   0.14354   1.57892    |
 |   370    0.62500   0.75000   0.12500   |    0.00000   0.28708   1.43538    |
 |   371    0.62500   0.75000   0.25000   |   -0.14354   0.43062   1.29185    |
 |   372    0.62500   0.75000   0.37500   |   -0.28708   0.57415   1.14831    |
 |   373    0.62500   0.75000   0.50000   |   -0.43062   0.71769   1.00477    |
 |   374    0.62500   0.75000   0.62500   |   -0.57415   0.86123   0.86123    |
 |   375    0.62500   0.75000   0.75000   |   -0.71769   1.00477   0.71769    |
 |   376    0.62500   0.75000   0.87500   |   -0.86123   1.14831   0.57415    |
 |   377    0.62500   0.87500   0.00000   |    0.28708   0.28708   1.72246    |
 |   378    0.62500   0.87500   0.12500   |    0.14354   0.43062   1.57892    |
 |   379    0.62500   0.87500   0.25000   |   -0.00000   0.57415   1.43538    |
 |   380    0.62500   0.87500   0.37500   |   -0.14354   0.71769   1.29185    |
 |   381    0.62500   0.87500   0.50000   |   -0.28708   0.86123   1.14831    |
 |   382    0.62500   0.87500   0.62500   |   -0.43062   1.00477   1.00477    |
 |   383    0.62500   0.87500   0.75000   |   -0.57415   1.14831   0.86123    |
 |   384    0.62500   0.87500   0.87500   |   -0.71769   1.29185   0.71769    |
 |   385    0.75000   0.00000   0.00000   |   -0.86123  -0.86123   0.86123    |
 |   386    0.75000   0.00000   0.12500   |   -1.00477  -0.71769   0.71769    |
 |   387    0.75000   0.00000   0.25000   |   -1.14831  -0.57415   0.57415    |
 |   388    0.75000   0.00000   0.37500   |   -1.29185  -0.43062   0.43062    |
 |   389    0.75000   0.00000   0.50000   |   -1.43538  -0.28708   0.28708    |
 |   390    0.75000   0.00000   0.62500   |   -1.57892  -0.14354   0.14354    |
 |   391    0.75000   0.00000   0.75000   |   -1.72246   0.00000   0.00000    |
 |   392    0.75000   0.00000   0.87500   |   -1.86600   0.14354  -0.14354    |
 |   393    0.75000   0.12500   0.00000   |   -0.71769  -0.71769   1.00477    |
 |   394    0.75000   0.12500   0.12500   |   -0.86123  -0.57415   0.86123    |
 |   395    0.75000   0.12500   0.25000   |   -1.00477  -0.43062   0.71769    |
 |   396    0.75000   0.12500   0.37500   |   -1.14831  -0.28708   0.57415    |
 |   397    0.75000   0.12500   0.50000   |   -1.29185  -0.14354   0.43062    |
 |   398    0.75000   0.12500   0.62500   |   -1.43538  -0.00000   0.28708    |
 |   399    0.75000   0.12500   0.75000   |   -1.57892   0.14354   0.14354    |
 |   400    0.75000   0.12500   0.87500   |   -1.72246   0.28708   0.00000    |
 |   401    0.75000   0.25000   0.00000   |   -0.57415  -0.57415   1.14831    |
 |   402    0.75000   0.25000   0.12500   |   -0.71769  -0.43062   1.00477    |
 |   403    0.75000   0.25000   0.25000   |   -0.86123  -0.28708   0.86123    |
 |   404    0.75000   0.25000   0.37500   |   -1.00477  -0.14354   0.71769    |
 |   405    0.75000   0.25000   0.50000   |   -1.14831  -0.00000   0.57415    |
 |   406    0.75000   0.25000   0.62500   |   -1.29185   0.14354   0.43062    |
 |   407    0.75000   0.25000   0.75000   |   -1.43538   0.28708   0.28708    |
 |   408    0.75000   0.25000   0.87500   |   -1.57892   0.43062   0.14354    |
 |   409    0.75000   0.37500   0.00000   |   -0.43062  -0.43062   1.29185    |
 |   410    0.75000   0.37500   0.12500   |   -0.57415  -0.28708   1.14831    |
 |   411    0.75000   0.37500   0.25000   |   -0.71769  -0.14354   1.00477    |
 |   412    0.75000   0.37500   0.37500   |   -0.86123   0.00000   0.86123    |
 |   413    0.75000   0.37500   0.50000   |   -1.00477   0.14354   0.71769    |
 |   414    0.75000   0.37500   0.62500   |   -1.14831   0.28708   0.57415    |
 |   415    0.75000   0.37500   0.75000   |   -1.29185   0.43062   0.43062    |
 |   416    0.75000   0.37500   0.87500   |   -1.43538   0.57415   0.28708    |
 |   417    0.75000   0.50000   0.00000   |   -0.28708  -0.28708   1.43538    |
 |   418    0.75000   0.50000   0.12500   |   -0.43062  -0.14354   1.29185    |
 |   419    0.75000   0.50000   0.25000   |   -0.57415  -0.00000   1.14831    |
 |   420    0.75000   0.50000   0.37500   |   -0.71769   0.14354   1.00477    |
 |   421    0.75000   0.50000   0.50000   |   -0.86123   0.28708   0.86123    |
 |   422    0.75000   0.50000   0.62500   |   -1.00477   0.43062   0.71769    |
 |   423    0.75000   0.50000   0.75000   |   -1.14831   0.57415   0.57415    |
 |   424    0.75000   0.50000   0.87500   |   -1.29185   0.71769   0.43062    |
 |   425    0.75000   0.62500   0.00000   |   -0.14354  -0.14354   1.57892    |
 |   426    0.75000   0.62500   0.12500   |   -0.28708  -0.00000   1.43538    |
 |   427    0.75000   0.62500   0.25000   |   -0.43062   0.14354   1.29185    |
 |   428    0.75000   0.62500   0.37500   |   -0.57415   0.28708   1.14831    |
 |   429    0.75000   0.62500   0.50000   |   -0.71769   0.43062   1.00477    |
 |   430    0.75000   0.62500   0.62500   |   -0.86123   0.57415   0.86123    |
 |   431    0.75000   0.62500   0.75000   |   -1.00477   0.71769   0.71769    |
 |   432    0.75000   0.62500   0.87500   |   -1.14831   0.86123   0.57415    |
 |   433    0.75000   0.75000   0.00000   |    0.00000   0.00000   1.72246    |
 |   434    0.75000   0.75000   0.12500   |   -0.14354   0.14354   1.57892    |
 |   435    0.75000   0.75000   0.25000   |   -0.28708   0.28708   1.43538    |
 |   436    0.75000   0.75000   0.37500   |   -0.43062   0.43062   1.29185    |
 |   437    0.75000   0.75000   0.50000   |   -0.57415   0.57415   1.14831    |
 |   438    0.75000   0.75000   0.62500   |   -0.71769   0.71769   1.00477    |
 |   439    0.75000   0.75000   0.75000   |   -0.86123   0.86123   0.86123    |
 |   440    0.75000   0.75000   0.87500   |   -1.00477   1.00477   0.71769    |
 |   441    0.75000   0.87500   0.00000   |    0.14354   0.14354   1.86600    |
 |   442    0.75000   0.87500   0.12500   |   -0.00000   0.28708   1.72246    |
 |   443    0.75000   0.87500   0.25000   |   -0.14354   0.43062   1.57892    |
 |   444    0.75000   0.87500   0.37500   |   -0.28708   0.57415   1.43538    |
 |   445    0.75000   0.87500   0.50000   |   -0.43062   0.71769   1.29185    |
 |   446    0.75000   0.87500   0.62500   |   -0.57415   0.86123   1.14831    |
 |   447    0.75000   0.87500   0.75000   |   -0.71769   1.00477   1.00477    |
 |   448    0.75000   0.87500   0.87500   |   -0.86123   1.14831   0.86123    |
 |   449    0.87500   0.00000   0.00000   |   -1.00477  -1.00477   1.00477    |
 |   450    0.87500   0.00000   0.12500   |   -1.14831  -0.86123   0.86123    |
 |   451    0.87500   0.00000   0.25000   |   -1.29185  -0.71769   0.71769    |
 |   452    0.87500   0.00000   0.37500   |   -1.43538  -0.57415   0.57415    |
 |   453    0.87500   0.00000   0.50000   |   -1.57892  -0.43062   0.43062    |
 |   454    0.87500   0.00000   0.62500   |   -1.72246  -0.28708   0.28708    |
 |   455    0.87500   0.00000   0.75000   |   -1.86600  -0.14354   0.14354    |
 |   456    0.87500   0.00000   0.87500   |   -2.00954   0.00000   0.00000    |
 |   457    0.87500   0.12500   0.00000   |   -0.86123  -0.86123   1.14831    |
 |   458    0.87500   0.12500   0.12500   |   -1.00477  -0.71769   1.00477    |
 |   459    0.87500   0.12500   0.25000   |   -1.14831  -0.57415   0.86123    |
 |   460    0.87500   0.12500   0.37500   |   -1.29185  -0.43062   0.71769    |
 |   461    0.87500   0.12500   0.50000   |   -1.43538  -0.28708   0.57415    |
 |   462    0.87500   0.12500   0.62500   |   -1.57892  -0.14354   0.43062    |
 |   463    0.87500   0.12500   0.75000   |   -1.72246   0.00000   0.28708    |
 |   464    0.87500   0.12500   0.87500   |   -1.86600   0.14354   0.14354    |
 |   465    0.87500   0.25000   0.00000   |   -0.71769  -0.71769   1.29185    |
 |   466    0.87500   0.25000   0.12500   |   -0.86123  -0.57415   1.14831    |
 |   467    0.87500   0.25000   0.25000   |   -1.00477  -0.43062   1.00477    |
 |   468    0.87500   0.25000   0.37500   |   -1.14831  -0.28708   0.86123    |
 |   469    0.87500   0.25000   0.50000   |   -1.29185  -0.14354   0.71769    |
 |   470    0.87500   0.25000   0.62500   |   -1.43538   0.00000   0.57415    |
 |   471    0.87500   0.25000   0.75000   |   -1.57892   0.14354   0.43062    |
 |   472    0.87500   0.25000   0.87500   |   -1.72246   0.28708   0.28708    |
 |   473    0.87500   0.37500   0.00000   |   -0.57415  -0.57415   1.43538    |
 |   474    0.87500   0.37500   0.12500   |   -0.71769  -0.43062   1.29185    |
 |   475    0.87500   0.37500   0.25000   |   -0.86123  -0.28708   1.14831    |
 |   476    0.87500   0.37500   0.37500   |   -1.00477  -0.14354   1.00477    |
 |   477    0.87500   0.37500   0.50000   |   -1.14831   0.00000   0.86123    |
 |   478    0.87500   0.37500   0.62500   |   -1.29185   0.14354   0.71769    |
 |   479    0.87500   0.37500   0.75000   |   -1.43538   0.28708   0.57415    |
 |   480    0.87500   0.37500   0.87500   |   -1.57892   0.43062   0.43062    |
 |   481    0.87500   0.50000   0.00000   |   -0.43062  -0.43062   1.57892    |
 |   482    0.87500   0.50000   0.12500   |   -0.57415  -0.28708   1.43538    |
 |   483    0.87500   0.50000   0.25000   |   -0.71769  -0.14354   1.29185    |
 |   484    0.87500   0.50000   0.37500   |   -0.86123   0.00000   1.14831    |
 |   485    0.87500   0.50000   0.50000   |   -1.00477   0.14354   1.00477    |
 |   486    0.87500   0.50000   0.62500   |   -1.14831   0.28708   0.86123    |
 |   487    0.87500   0.50000   0.75000   |   -1.29185   0.43062   0.71769    |
 |   488    0.87500   0.50000   0.87500   |   -1.43538   0.57415   0.57415    |
 |   489    0.87500   0.62500   0.00000   |   -0.28708  -0.28708   1.72246    |
 |   490    0.87500   0.62500   0.12500   |   -0.43062  -0.14354   1.57892    |
 |   491    0.87500   0.62500   0.25000   |   -0.57415   0.00000   1.43538    |
 |   492    0.87500   0.62500   0.37500   |   -0.71769   0.14354   1.29185    |
 |   493    0.87500   0.62500   0.50000   |   -0.86123   0.28708   1.14831    |
 |   494    0.87500   0.62500   0.62500   |   -1.00477   0.43062   1.00477    |
 |   495    0.87500   0.62500   0.75000   |   -1.14831   0.57415   0.86123    |
 |   496    0.87500   0.62500   0.87500   |   -1.29185   0.71769   0.71769    |
 |   497    0.87500   0.75000   0.00000   |   -0.14354  -0.14354   1.86600    |
 |   498    0.87500   0.75000   0.12500   |   -0.28708   0.00000   1.72246    |
 |   499    0.87500   0.75000   0.25000   |   -0.43062   0.14354   1.57892    |
 |   500    0.87500   0.75000   0.37500   |   -0.57415   0.28708   1.43538    |
 |   501    0.87500   0.75000   0.50000   |   -0.71769   0.43062   1.29185    |
 |   502    0.87500   0.75000   0.62500   |   -0.86123   0.57415   1.14831    |
 |   503    0.87500   0.75000   0.75000   |   -1.00477   0.71769   1.00477    |
 |   504    0.87500   0.75000   0.87500   |   -1.14831   0.86123   0.86123    |
 |   505    0.87500   0.87500   0.00000   |    0.00000   0.00000   2.00954    |
 |   506    0.87500   0.87500   0.12500   |   -0.14354   0.14354   1.86600    |
 |   507    0.87500   0.87500   0.25000   |   -0.28708   0.28708   1.72246    |
 |   508    0.87500   0.87500   0.37500   |   -0.43062   0.43062   1.57892    |
 |   509    0.87500   0.87500   0.50000   |   -0.57415   0.57415   1.43538    |
 |   510    0.87500   0.87500   0.62500   |   -0.71769   0.71769   1.29185    |
 |   511    0.87500   0.87500   0.75000   |   -0.86123   0.86123   1.14831    |
 |   512    0.87500   0.87500   0.87500   |   -1.00477   1.00477   1.00477    |
 *----------------------------------------------------------------------------*
  
  
 *---------------------------------- MAIN ------------------------------------*
 |  Number of Wannier Functions               :                 4             |
 |  Number of Objective Wannier Functions     :                 4             |
 |  Number of input Bloch states              :                16             |
 |  Output verbosity (1=low, 5=high)          :                 5             |
 |  Timing Level (1=low, 5=high)              :                 1             |
 |  Optimisation (0=memory, 3=speed)          :                 3             |
 |  Length Unit                               :               Ang             |
 |  Post-processing setup (write *.nnkp)      :                 F             |
 |  Using Gamma-only branch of algorithms     :                 F             |
 |  CP code post-processing                   :                 F             |
 |  Wavefunction (UNK) file-type              :       unformatted             |
 |  Wavefunction spin channel                 :                up             |
 *----------------------------------------------------------------------------*
 *------------------------------- WANNIERISE ---------------------------------*
 |  Total number of iterations                :               100             |
 |  Number of CG steps before reset           :                 5             |
 |  Trial step length for line search         :             2.000             |
 |  Convergence tolerence                     :         0.100E-09             |
 |  Convergence window                        :                -1             |
 |  Iterations between writing output         :                 1             |
 |  Iterations between backing up to disk     :               100             |
 |  Write r^2_nm to file                      :                 F             |
 |  Write xyz WF centres to file              :                 F             |
 |  Write on-site energies <0n|H|0n> to file  :                 F             |
 |  Use guiding centre to control phases      :                 F             |
 |  Use phases for initial projections        :                 F             |
 |  Iterations before starting guiding centres:                 0             |
 |  Iterations between using guiding centres  :                 1             |
 |  Perform selective localization            :                 F             |
 |  Use constrains in selective localization  :                 F             |
 |  Value of the Lagrange multiplier          :         0.100E+01             |
 *----------------------------------------------------------------------------*
 *------------------------------- DISENTANGLE --------------------------------*
 |  Using band disentanglement                :                 T             |
 |  Total number of iterations                :               100             |
 |  Mixing ratio                              :             0.500             |
 |  Convergence tolerence                     :         1.000E-10             |
 |  Convergence window                        :                 3             |
 *----------------------------------------------------------------------------*
 *-------------------------------- PLOTTING ----------------------------------*
 |  Plotting Wannier functions                :                 T             |
 |   Size of supercell for plotting           :     3x    3x    3             |
 |   Plotting mode (molecule or crystal)      :           crystal             |
 |   Plotting format                          :          xcrysden             |
 |   Plot radius                              :             3.500             |
 |   Plot scale                               :             1.000             |
 *----------------------------------------------------------------------------*
 |  Plotting Fermi surface                    :                 F             |
 |   Number of plotting points (along b_1)    :                50             |
 |   Plotting format                          :          xcrysden             |
 *----------------------------------------------------------------------------*
 |  Plotting interpolated bandstructure       :                 T             |
 |   Number of K-path sections                :                 4             |
 |   Divisions along first K-path section     :               100             |
 |   Output format                            :           gnuplot             |
 |   Output mode                              :               s-k             |
 *----------------------------------------------------------------------------*
 |   K-space path sections:                                                   |
 |    From: L       0.000  0.500  0.000     To: G       0.000  0.000  0.000   |
 |    From: G       0.000  0.000  0.000     To: X      -0.500  0.000 -0.500   |
 |    From: X      -0.500  0.000 -0.500     To: U      -0.375  0.250 -0.375   |
 |    From: U      -0.375  0.250 -0.375     To: G       0.000  0.000  0.000   |
 *----------------------------------------------------------------------------*
 |  Plotting Hamiltonian in WF basis          :                 F             |
 *----------------------------------------------------------------------------*
 |  Writing data for Van der Waals post-proc  :                 F             |
 *----------------------------------------------------------------------------*
 *------------------------------- TRANSPORT ----------------------------------*
 |  Transport mode                            :              bulk             |
 |   Hamiltonian from external files          :                 F             |
 |   System extended in                       :              none             |
 |   Centre of the unit cell to which WF are translated (fract. coords):      |
 |                                       0.000000,    0.000000,    0.000000   |
 |  Fermi energy (eV)                         :             0.000             |
 *----------------------------------------------------------------------------*
 Time to read parameters        0.035 (sec)

 *---------------------------------- K-MESH ----------------------------------*
 +----------------------------------------------------------------------------+
 |                    Distance to Nearest-Neighbour Shells                    |
 |                    ------------------------------------                    |
 |          Shell             Distance (Ang^-1)          Multiplicity         |
 |          -----             -----------------          ------------         |
 |             1                   0.248616                      8            |
 |             2                   0.287077                      6            |
 |             3                   0.405988                     12            |
 |             4                   0.476063                     24            |
 |             5                   0.497232                      8            |
 |             6                   0.574154                      6            |
 |             7                   0.625670                     24            |
 |             8                   0.641923                     24            |
 |             9                   0.703192                     24            |
 |            10                   0.745848                     32            |
 |            11                   0.811976                     12            |
 |            12                   0.849185                     48            |
 |            13                   0.861231                     30            |
 |            14                   0.907817                     24            |
 |            15                   0.941244                     24            |
 |            16                   0.952126                     24            |
 |            17                   0.994463                      8            |
 |            18                   1.025069                     48            |
 |            19                   1.035070                     24            |
 |            20                   1.074143                     48            |
 |            21                   1.102540                     72            |
 |            22                   1.148307                      6            |
 |            23                   1.174913                     24            |
 |            24                   1.183648                     48            |
 |            25                   1.217964                     36            |
 |            26                   1.243079                     56            |
 |            27                   1.251339                     24            |
 |            28                   1.283847                     24            |
 |            29                   1.307697                     72            |
 |            30                   1.315552                     48            |
 |            31                   1.346510                     24            |
 |            32                   1.369269                     48            |
 |            33                   1.406384                     24            |
 |            34                   1.428189                     72            |
 |            35                   1.435384                     30            |
 |            36                   1.463811                     72            |
 +----------------------------------------------------------------------------+
 |                                                                            |
 |         Complete list of b-vectors and their lengths                       |
 |                                                                            |
 +----------------------------------------------------------------------------+
 | b-vector     1 : (     -0.143538    0.143538   -0.143538  )      0.248616  |
 | b-vector     2 : (      0.143538    0.143538    0.143538  )      0.248616  |
 | b-vector     3 : (     -0.143538   -0.143538    0.143538  )      0.248616  |
 | b-vector     4 : (     -0.143538    0.143538    0.143538  )      0.248616  |
 | b-vector     5 : (      0.143538   -0.143538    0.143538  )      0.248616  |
 | b-vector     6 : (     -0.143538   -0.143538   -0.143538  )      0.248616  |
 | b-vector     7 : (      0.143538    0.143538   -0.143538  )      0.248616  |
 | b-vector     8 : (      0.143538   -0.143538   -0.143538  )      0.248616  |
 | b-vector     9 : (      0.000000    0.287077    0.000000  )      0.287077  |
 | b-vector    10 : (     -0.287077    0.000000    0.000000  )      0.287077  |
 | b-vector    11 : (      0.000000    0.000000    0.287077  )      0.287077  |
 | b-vector    12 : (      0.000000   -0.287077    0.000000  )      0.287077  |
 | b-vector    13 : (      0.287077    0.000000    0.000000  )      0.287077  |
 | b-vector    14 : (      0.000000    0.000000   -0.287077  )      0.287077  |
 | b-vector    15 : (     -0.287077    0.287077    0.000000  )      0.405988  |
 | b-vector    16 : (      0.000000    0.287077    0.287077  )      0.405988  |
 | b-vector    17 : (     -0.287077    0.000000    0.287077  )      0.405988  |
 | b-vector    18 : (      0.287077    0.000000    0.287077  )      0.405988  |
 | b-vector    19 : (      0.000000   -0.287077    0.287077  )      0.405988  |
 | b-vector    20 : (     -0.287077    0.000000   -0.287077  )      0.405988  |
 | b-vector    21 : (     -0.287077   -0.287077    0.000000  )      0.405988  |
 | b-vector    22 : (      0.000000    0.287077   -0.287077  )      0.405988  |
 | b-vector    23 : (      0.287077    0.287077    0.000000  )      0.405988  |
 | b-vector    24 : (      0.287077   -0.000000   -0.287077  )      0.405988  |
 | b-vector    25 : (      0.000000   -0.287077   -0.287077  )      0.405988  |
 | b-vector    26 : (      0.287077   -0.287077   -0.000000  )      0.405988  |
 | b-vector    27 : (     -0.143538    0.430615   -0.143538  )      0.476063  |
 | b-vector    28 : (      0.143538    0.430615    0.143538  )      0.476063  |
 | b-vector    29 : (     -0.430615    0.143538   -0.143538  )      0.476063  |
 | b-vector    30 : (      0.143538    0.143538    0.430615  )      0.476063  |
 | b-vector    31 : (     -0.143538    0.430615    0.143538  )      0.476063  |
 | b-vector    32 : (     -0.430615   -0.143538    0.143538  )      0.476063  |
 | b-vector    33 : (     -0.143538   -0.143538    0.430615  )      0.476063  |
 | b-vector    34 : (     -0.430615    0.143538    0.143538  )      0.476063  |
 | b-vector    35 : (     -0.143538    0.143538    0.430615  )      0.476063  |
 | b-vector    36 : (      0.143538   -0.143538    0.430615  )      0.476063  |
 | b-vector    37 : (     -0.430615   -0.143538   -0.143538  )      0.476063  |
 | b-vector    38 : (      0.143538    0.430615   -0.143538  )      0.476063  |
 | b-vector    39 : (      0.143538   -0.143538   -0.430615  )      0.476063  |
 | b-vector    40 : (      0.430615   -0.143538   -0.143538  )      0.476063  |
 | b-vector    41 : (      0.143538   -0.430615   -0.143538  )      0.476063  |
 | b-vector    42 : (     -0.143538   -0.430615   -0.143538  )      0.476063  |
 | b-vector    43 : (      0.143538   -0.430615    0.143538  )      0.476063  |
 | b-vector    44 : (     -0.143538   -0.430615    0.143538  )      0.476063  |
 | b-vector    45 : (      0.430615    0.143538   -0.143538  )      0.476063  |
 | b-vector    46 : (      0.430615   -0.143538    0.143538  )      0.476063  |
 | b-vector    47 : (      0.430615    0.143538    0.143538  )      0.476063  |
 | b-vector    48 : (      0.143538    0.143538   -0.430615  )      0.476063  |
 | b-vector    49 : (     -0.143538   -0.143538   -0.430615  )      0.476063  |
 | b-vector    50 : (     -0.143538    0.143538   -0.430615  )      0.476063  |
 | b-vector    51 : (     -0.287077    0.287077   -0.287077  )      0.497232  |
 | b-vector    52 : (      0.287077    0.287077    0.287077  )      0.497232  |
 | b-vector    53 : (     -0.287077   -0.287077    0.287077  )      0.497232  |
 | b-vector    54 : (     -0.287077    0.287077    0.287077  )      0.497232  |
 | b-vector    55 : (      0.287077   -0.287077    0.287077  )      0.497232  |
 | b-vector    56 : (     -0.287077   -0.287077   -0.287077  )      0.497232  |
 | b-vector    57 : (      0.287077    0.287077   -0.287077  )      0.497232  |
 | b-vector    58 : (      0.287077   -0.287077   -0.287077  )      0.497232  |
 | b-vector    59 : (      0.000000    0.574154    0.000000  )      0.574154  |
 | b-vector    60 : (     -0.574154    0.000000    0.000000  )      0.574154  |
 | b-vector    61 : (      0.000000    0.000000    0.574154  )      0.574154  |
 | b-vector    62 : (      0.000000   -0.574154    0.000000  )      0.574154  |
 | b-vector    63 : (      0.574154    0.000000    0.000000  )      0.574154  |
 | b-vector    64 : (      0.000000    0.000000   -0.574154  )      0.574154  |
 | b-vector    65 : (     -0.430615    0.430615   -0.143538  )      0.625670  |
 | b-vector    66 : (      0.143538    0.430615    0.430615  )      0.625670  |
 | b-vector    67 : (     -0.430615    0.430615    0.143538  )      0.625670  |
 | b-vector    68 : (     -0.143538    0.430615    0.430615  )      0.625670  |
 | b-vector    69 : (     -0.430615   -0.143538    0.430615  )      0.625670  |
 | b-vector    70 : (     -0.430615    0.143538    0.430615  )      0.625670  |
 | b-vector    71 : (      0.430615   -0.143538    0.430615  )      0.625670  |
 | b-vector    72 : (      0.430615    0.143538    0.430615  )      0.625670  |
 | b-vector    73 : (      0.143538   -0.430615    0.430615  )      0.625670  |
 | b-vector    74 : (     -0.143538   -0.430615    0.430615  )      0.625670  |
 | b-vector    75 : (     -0.430615   -0.143538   -0.430615  )      0.625670  |
 | b-vector    76 : (     -0.430615    0.143538   -0.430615  )      0.625670  |
 | b-vector    77 : (     -0.430615   -0.430615   -0.143538  )      0.625670  |
 | b-vector    78 : (     -0.430615   -0.430615    0.143538  )      0.625670  |
 | b-vector    79 : (      0.143538    0.430615   -0.430615  )      0.625670  |
 | b-vector    80 : (      0.430615    0.430615   -0.143538  )      0.625670  |
 | b-vector    81 : (     -0.143538    0.430615   -0.430615  )      0.625670  |
 | b-vector    82 : (      0.430615    0.430615    0.143538  )      0.625670  |
 | b-vector    83 : (      0.430615   -0.143538   -0.430615  )      0.625670  |
 | b-vector    84 : (      0.430615    0.143538   -0.430615  )      0.625670  |
 | b-vector    85 : (      0.143538   -0.430615   -0.430615  )      0.625670  |
 | b-vector    86 : (      0.430615   -0.430615   -0.143538  )      0.625670  |
 | b-vector    87 : (     -0.143538   -0.430615   -0.430615  )      0.625670  |
 | b-vector    88 : (      0.430615   -0.430615    0.143538  )      0.625670  |
 | b-vector    89 : (     -0.287077    0.574154    0.000000  )      0.641923  |
 | b-vector    90 : (      0.000000    0.574154    0.287077  )      0.641923  |
 | b-vector    91 : (     -0.574154    0.287077    0.000000  )      0.641923  |
 | b-vector    92 : (      0.000000    0.287077    0.574154  )      0.641923  |
 | b-vector    93 : (     -0.574154   -0.000000    0.287077  )      0.641923  |
 | b-vector    94 : (     -0.287077   -0.000000    0.574154  )      0.641923  |
 | b-vector    95 : (      0.287077    0.000000    0.574154  )      0.641923  |
 | b-vector    96 : (      0.000000   -0.287077    0.574154  )      0.641923  |
 | b-vector    97 : (     -0.574154    0.000000   -0.287077  )      0.641923  |
 | b-vector    98 : (     -0.574154   -0.287077   -0.000000  )      0.641923  |
 | b-vector    99 : (      0.000000    0.574154   -0.287077  )      0.641923  |
 | b-vector   100 : (      0.287077    0.574154   -0.000000  )      0.641923  |
 | b-vector   101 : (      0.287077    0.000000   -0.574154  )      0.641923  |
 | b-vector   102 : (      0.574154    0.000000   -0.287077  )      0.641923  |
 | b-vector   103 : (      0.000000   -0.287077   -0.574154  )      0.641923  |
 | b-vector   104 : (      0.574154   -0.287077    0.000000  )      0.641923  |
 | b-vector   105 : (      0.000000   -0.574154   -0.287077  )      0.641923  |
 | b-vector   106 : (      0.287077   -0.574154    0.000000  )      0.641923  |
 | b-vector   107 : (     -0.287077   -0.574154    0.000000  )      0.641923  |
 | b-vector   108 : (     -0.000000   -0.574154    0.287077  )      0.641923  |
 | b-vector   109 : (      0.574154    0.287077    0.000000  )      0.641923  |
 | b-vector   110 : (      0.574154    0.000000    0.287077  )      0.641923  |
 | b-vector   111 : (     -0.000000    0.287077   -0.574154  )      0.641923  |
 | b-vector   112 : (     -0.287077    0.000000   -0.574154  )      0.641923  |
 | b-vector   113 : (     -0.287077    0.574154   -0.287077  )      0.703192  |
 | b-vector   114 : (      0.287077    0.574154    0.287077  )      0.703192  |
 | b-vector   115 : (     -0.574154    0.287077   -0.287077  )      0.703192  |
 | b-vector   116 : (      0.287077    0.287077    0.574154  )      0.703192  |
 | b-vector   117 : (     -0.287077    0.574154    0.287077  )      0.703192  |
 | b-vector   118 : (     -0.574154   -0.287077    0.287077  )      0.703192  |
 | b-vector   119 : (     -0.287077   -0.287077    0.574154  )      0.703192  |
 | b-vector   120 : (     -0.574154    0.287077    0.287077  )      0.703192  |
 | b-vector   121 : (     -0.287077    0.287077    0.574154  )      0.703192  |
 | b-vector   122 : (      0.287077   -0.287077    0.574154  )      0.703192  |
 | b-vector   123 : (     -0.574154   -0.287077   -0.287077  )      0.703192  |
 | b-vector   124 : (      0.287077    0.574154   -0.287077  )      0.703192  |
 | b-vector   125 : (      0.287077   -0.287077   -0.574154  )      0.703192  |
 | b-vector   126 : (      0.574154   -0.287077   -0.287077  )      0.703192  |
 | b-vector   127 : (      0.287077   -0.574154   -0.287077  )      0.703192  |
 | b-vector   128 : (     -0.287077   -0.574154   -0.287077  )      0.703192  |
 | b-vector   129 : (      0.287077   -0.574154    0.287077  )      0.703192  |
 | b-vector   130 : (     -0.287077   -0.574154    0.287077  )      0.703192  |
 | b-vector   131 : (      0.574154    0.287077   -0.287077  )      0.703192  |
 | b-vector   132 : (      0.574154   -0.287077    0.287077  )      0.703192  |
 | b-vector   133 : (      0.574154    0.287077    0.287077  )      0.703192  |
 | b-vector   134 : (      0.287077    0.287077   -0.574154  )      0.703192  |
 | b-vector   135 : (     -0.287077   -0.287077   -0.574154  )      0.703192  |
 | b-vector   136 : (     -0.287077    0.287077   -0.574154  )      0.703192  |
 | b-vector   137 : (     -0.430615    0.430615   -0.430615  )      0.745848  |
 | b-vector   138 : (     -0.143538    0.717692   -0.143538  )      0.745848  |
 | b-vector   139 : (      0.430615    0.430615    0.430615  )      0.745848  |
 | b-vector   140 : (      0.143538    0.717692    0.143538  )      0.745848  |
 | b-vector   141 : (     -0.143538    0.717692    0.143538  )      0.745848  |
 | b-vector   142 : (     -0.717692    0.143538   -0.143538  )      0.745848  |
 | b-vector   143 : (      0.143538    0.143538    0.717692  )      0.745848  |
 | b-vector   144 : (     -0.430615   -0.430615    0.430615  )      0.745848  |
 | b-vector   145 : (     -0.717692   -0.143538    0.143538  )      0.745848  |
 | b-vector   146 : (     -0.717692    0.143538    0.143538  )      0.745848  |
 | b-vector   147 : (     -0.143538   -0.143538    0.717692  )      0.745848  |
 | b-vector   148 : (     -0.143538    0.143538    0.717692  )      0.745848  |
 | b-vector   149 : (     -0.430615    0.430615    0.430615  )      0.745848  |
 | b-vector   150 : (      0.430615   -0.430615    0.430615  )      0.745848  |
 | b-vector   151 : (      0.143538   -0.143538    0.717692  )      0.745848  |
 | b-vector   152 : (     -0.430615   -0.430615   -0.430615  )      0.745848  |
 | b-vector   153 : (     -0.717692   -0.143538   -0.143538  )      0.745848  |
 | b-vector   154 : (      0.430615    0.430615   -0.430615  )      0.745848  |
 | b-vector   155 : (      0.143538    0.717692   -0.143538  )      0.745848  |
 | b-vector   156 : (      0.430615   -0.430615   -0.430615  )      0.745848  |
 | b-vector   157 : (      0.143538   -0.143538   -0.717692  )      0.745848  |
 | b-vector   158 : (      0.717692   -0.143538   -0.143538  )      0.745848  |
 | b-vector   159 : (      0.143538   -0.717692   -0.143538  )      0.745848  |
 | b-vector   160 : (     -0.143538   -0.717692   -0.143538  )      0.745848  |
 | b-vector   161 : (      0.143538   -0.717692    0.143538  )      0.745848  |
 | b-vector   162 : (     -0.143538   -0.717692    0.143538  )      0.745848  |
 | b-vector   163 : (      0.717692    0.143538   -0.143538  )      0.745848  |
 | b-vector   164 : (      0.717692   -0.143538    0.143538  )      0.745848  |
 | b-vector   165 : (      0.717692    0.143538    0.143538  )      0.745848  |
 | b-vector   166 : (      0.143538    0.143538   -0.717692  )      0.745848  |
 | b-vector   167 : (     -0.143538   -0.143538   -0.717692  )      0.745848  |
 | b-vector   168 : (     -0.143538    0.143538   -0.717692  )      0.745848  |
 | b-vector   169 : (     -0.574154    0.574154    0.000000  )      0.811976  |
 | b-vector   170 : (      0.000000    0.574154    0.574154  )      0.811976  |
 | b-vector   171 : (     -0.574154    0.000000    0.574154  )      0.811976  |
 | b-vector   172 : (      0.574154    0.000000    0.574154  )      0.811976  |
 | b-vector   173 : (      0.000000   -0.574154    0.574154  )      0.811976  |
 | b-vector   174 : (     -0.574154    0.000000   -0.574154  )      0.811976  |
 | b-vector   175 : (     -0.574154   -0.574154    0.000000  )      0.811976  |
 | b-vector   176 : (      0.000000    0.574154   -0.574154  )      0.811976  |
 | b-vector   177 : (      0.574154    0.574154    0.000000  )      0.811976  |
 | b-vector   178 : (      0.574154    0.000000   -0.574154  )      0.811976  |
 | b-vector   179 : (     -0.000000   -0.574154   -0.574154  )      0.811976  |
 | b-vector   180 : (      0.574154   -0.574154    0.000000  )      0.811976  |
 | b-vector   181 : (     -0.430615    0.717692   -0.143538  )      0.849185  |
 | b-vector   182 : (      0.143538    0.717692    0.430615  )      0.849185  |
 | b-vector   183 : (     -0.717692    0.430615   -0.143538  )      0.849185  |
 | b-vector   184 : (     -0.430615    0.717692    0.143538  )      0.849185  |
 | b-vector   185 : (      0.143538    0.430615    0.717692  )      0.849185  |
 | b-vector   186 : (     -0.143538    0.717692    0.430615  )      0.849185  |
 | b-vector   187 : (     -0.717692    0.430615    0.143538  )      0.849185  |
 | b-vector   188 : (     -0.143538    0.430615    0.717692  )      0.849185  |
 | b-vector   189 : (     -0.717692   -0.143538    0.430615  )      0.849185  |
 | b-vector   190 : (     -0.430615   -0.143538    0.717692  )      0.849185  |
 | b-vector   191 : (     -0.717692    0.143538    0.430615  )      0.849185  |
 | b-vector   192 : (     -0.430615    0.143538    0.717692  )      0.849185  |
 | b-vector   193 : (      0.430615   -0.143538    0.717692  )      0.849185  |
 | b-vector   194 : (      0.430615    0.143538    0.717692  )      0.849185  |
 | b-vector   195 : (      0.143538   -0.430615    0.717692  )      0.849185  |
 | b-vector   196 : (     -0.143538   -0.430615    0.717692  )      0.849185  |
 | b-vector   197 : (     -0.717692   -0.143538   -0.430615  )      0.849185  |
 | b-vector   198 : (     -0.717692    0.143538   -0.430615  )      0.849185  |
 | b-vector   199 : (     -0.717692   -0.430615   -0.143538  )      0.849185  |
 | b-vector   200 : (     -0.717692   -0.430615    0.143538  )      0.849185  |
 | b-vector   201 : (      0.143538    0.717692   -0.430615  )      0.849185  |
 | b-vector   202 : (      0.430615    0.717692   -0.143538  )      0.849185  |
 | b-vector   203 : (     -0.143538    0.717692   -0.430615  )      0.849185  |
 | b-vector   204 : (      0.430615    0.717692    0.143538  )      0.849185  |
 | b-vector   205 : (      0.430615   -0.143538   -0.717692  )      0.849185  |
 | b-vector   206 : (      0.717692   -0.143538   -0.430615  )      0.849185  |
 | b-vector   207 : (      0.430615    0.143538   -0.717692  )      0.849185  |
 | b-vector   208 : (      0.717692    0.143538   -0.430615  )      0.849185  |
 | b-vector   209 : (      0.143538   -0.430615   -0.717692  )      0.849185  |
 | b-vector   210 : (      0.717692   -0.430615   -0.143538  )      0.849185  |
 | b-vector   211 : (      0.143538   -0.717692   -0.430615  )      0.849185  |
 | b-vector   212 : (     -0.143538   -0.430615   -0.717692  )      0.849185  |
 | b-vector   213 : (      0.430615   -0.717692   -0.143538  )      0.849185  |
 | b-vector   214 : (      0.717692   -0.430615    0.143538  )      0.849185  |
 | b-vector   215 : (     -0.143538   -0.717692   -0.430615  )      0.849185  |
 | b-vector   216 : (      0.430615   -0.717692    0.143538  )      0.849185  |
 | b-vector   217 : (     -0.430615   -0.717692   -0.143538  )      0.849185  |
 | b-vector   218 : (      0.143538   -0.717692    0.430615  )      0.849185  |
 | b-vector   219 : (     -0.430615   -0.717692    0.143538  )      0.849185  |
 | b-vector   220 : (     -0.143538   -0.717692    0.430615  )      0.849185  |
 | b-vector   221 : (      0.717692    0.430615   -0.143538  )      0.849185  |
 | b-vector   222 : (      0.717692    0.430615    0.143538  )      0.849185  |
 | b-vector   223 : (      0.717692   -0.143538    0.430615  )      0.849185  |
 | b-vector   224 : (      0.717692    0.143538    0.430615  )      0.849185  |
 | b-vector   225 : (      0.143538    0.430615   -0.717692  )      0.849185  |
 | b-vector   226 : (     -0.143538    0.430615   -0.717692  )      0.849185  |
 | b-vector   227 : (     -0.430615   -0.143538   -0.717692  )      0.849185  |
 | b-vector   228 : (     -0.430615    0.143538   -0.717692  )      0.849185  |
 | b-vector   229 : (      0.000000    0.861231    0.000000  )      0.861231  |
 | b-vector   230 : (     -0.574154    0.574154   -0.287077  )      0.861231  |
 | b-vector   231 : (      0.287077    0.574154    0.574154  )      0.861231  |
 | b-vector   232 : (     -0.861231    0.000000    0.000000  )      0.861231  |
 | b-vector   233 : (      0.000000    0.000000    0.861231  )      0.861231  |
 | b-vector   234 : (     -0.574154    0.574154    0.287077  )      0.861231  |
 | b-vector   235 : (     -0.287077    0.574154    0.574154  )      0.861231  |
 | b-vector   236 : (     -0.574154   -0.287077    0.574154  )      0.861231  |
 | b-vector   237 : (     -0.574154    0.287077    0.574154  )      0.861231  |
 | b-vector   238 : (      0.574154   -0.287077    0.574154  )      0.861231  |
 | b-vector   239 : (      0.574154    0.287077    0.574154  )      0.861231  |
 | b-vector   240 : (      0.287077   -0.574154    0.574154  )      0.861231  |
 | b-vector   241 : (     -0.287077   -0.574154    0.574154  )      0.861231  |
 | b-vector   242 : (     -0.574154   -0.287077   -0.574154  )      0.861231  |
 | b-vector   243 : (     -0.574154    0.287077   -0.574154  )      0.861231  |
 | b-vector   244 : (     -0.574154   -0.574154   -0.287077  )      0.861231  |
 | b-vector   245 : (     -0.574154   -0.574154    0.287077  )      0.861231  |
 | b-vector   246 : (      0.287077    0.574154   -0.574154  )      0.861231  |
 | b-vector   247 : (      0.574154    0.574154   -0.287077  )      0.861231  |
 | b-vector   248 : (     -0.287077    0.574154   -0.574154  )      0.861231  |
 | b-vector   249 : (      0.574154    0.574154    0.287077  )      0.861231  |
 | b-vector   250 : (      0.574154   -0.287077   -0.574154  )      0.861231  |
 | b-vector   251 : (      0.574154    0.287077   -0.574154  )      0.861231  |
 | b-vector   252 : (      0.287077   -0.574154   -0.574154  )      0.861231  |
 | b-vector   253 : (      0.574154   -0.574154   -0.287077  )      0.861231  |
 | b-vector   254 : (     -0.287077   -0.574154   -0.574154  )      0.861231  |
 | b-vector   255 : (      0.574154   -0.574154    0.287077  )      0.861231  |
 | b-vector   256 : (      0.000000   -0.861231    0.000000  )      0.861231  |
 | b-vector   257 : (      0.861231    0.000000    0.000000  )      0.861231  |
 | b-vector   258 : (      0.000000    0.000000   -0.861231  )      0.861231  |
 | b-vector   259 : (     -0.287077    0.861231    0.000000  )      0.907817  |
 | b-vector   260 : (      0.000000    0.861231    0.287077  )      0.907817  |
 | b-vector   261 : (     -0.861231    0.287077    0.000000  )      0.907817  |
 | b-vector   262 : (     -0.000000    0.287077    0.861231  )      0.907817  |
 | b-vector   263 : (     -0.861231    0.000000    0.287077  )      0.907817  |
[...]
 | b-vector   949 : (     -0.574154    0.574154    1.148307  )      1.406384  |
 | b-vector   950 : (      0.574154   -0.574154    1.148307  )      1.406384  |
 | b-vector   951 : (     -1.148307   -0.574154   -0.574154  )      1.406384  |
 | b-vector   952 : (      0.574154    1.148307   -0.574154  )      1.406384  |
 | b-vector   953 : (      0.574154   -0.574154   -1.148307  )      1.406384  |
 | b-vector   954 : (      1.148307   -0.574154   -0.574154  )      1.406384  |
 | b-vector   955 : (      0.574154   -1.148307   -0.574154  )      1.406384  |
 | b-vector   956 : (     -0.574154   -1.148307   -0.574154  )      1.406384  |
 | b-vector   957 : (      0.574154   -1.148307    0.574154  )      1.406384  |
 | b-vector   958 : (     -0.574154   -1.148307    0.574154  )      1.406384  |
 | b-vector   959 : (      1.148307    0.574154   -0.574154  )      1.406384  |
 | b-vector   960 : (      1.148307   -0.574154    0.574154  )      1.406384  |
 | b-vector   961 : (      1.148307    0.574154    0.574154  )      1.406384  |
 | b-vector   962 : (      0.574154    0.574154   -1.148307  )      1.406384  |
 | b-vector   963 : (     -0.574154   -0.574154   -1.148307  )      1.406384  |
 | b-vector   964 : (     -0.574154    0.574154   -1.148307  )      1.406384  |
 | b-vector   965 : (     -0.717692    1.004769   -0.717692  )      1.428189  |
 | b-vector   966 : (     -0.430615    1.291846   -0.430615  )      1.428189  |
 | b-vector   967 : (      0.717692    1.004769    0.717692  )      1.428189  |
 | b-vector   968 : (      0.430615    1.291846    0.430615  )      1.428189  |
 | b-vector   969 : (     -1.004769    0.717692   -0.717692  )      1.428189  |
 | b-vector   970 : (      0.717692    0.717692    1.004769  )      1.428189  |
 | b-vector   971 : (     -1.291846    0.430615   -0.430615  )      1.428189  |
 | b-vector   972 : (     -1.004769    1.004769   -0.143538  )      1.428189  |
 | b-vector   973 : (      0.430615    0.430615    1.291846  )      1.428189  |
 | b-vector   974 : (     -0.430615    1.291846    0.430615  )      1.428189  |
 | b-vector   975 : (      0.143538    1.004769    1.004769  )      1.428189  |
 | b-vector   976 : (     -1.004769    1.004769    0.143538  )      1.428189  |
 | b-vector   977 : (     -0.143538    1.004769    1.004769  )      1.428189  |
 | b-vector   978 : (     -0.717692    1.004769    0.717692  )      1.428189  |
 | b-vector   979 : (     -1.004769   -0.717692    0.717692  )      1.428189  |
 | b-vector   980 : (     -1.291846   -0.430615    0.430615  )      1.428189  |
 | b-vector   981 : (     -0.717692   -0.717692    1.004769  )      1.428189  |
 | b-vector   982 : (     -0.430615   -0.430615    1.291846  )      1.428189  |
 | b-vector   983 : (     -1.291846    0.430615    0.430615  )      1.428189  |
 | b-vector   984 : (     -1.004769    0.717692    0.717692  )      1.428189  |
 | b-vector   985 : (     -0.430615    0.430615    1.291846  )      1.428189  |
 | b-vector   986 : (     -0.717692    0.717692    1.004769  )      1.428189  |
 | b-vector   987 : (     -1.004769   -0.143538    1.004769  )      1.428189  |
 | b-vector   988 : (     -1.004769    0.143538    1.004769  )      1.428189  |
 | b-vector   989 : (      1.004769   -0.143538    1.004769  )      1.428189  |
 | b-vector   990 : (      1.004769    0.143538    1.004769  )      1.428189  |
 | b-vector   991 : (      0.717692   -0.717692    1.004769  )      1.428189  |
 | b-vector   992 : (      0.143538   -1.004769    1.004769  )      1.428189  |
 | b-vector   993 : (      0.430615   -0.430615    1.291846  )      1.428189  |
 | b-vector   994 : (     -0.143538   -1.004769    1.004769  )      1.428189  |
 | b-vector   995 : (     -1.004769   -0.143538   -1.004769  )      1.428189  |
 | b-vector   996 : (     -1.004769    0.143538   -1.004769  )      1.428189  |
 | b-vector   997 : (     -1.004769   -0.717692   -0.717692  )      1.428189  |
 | b-vector   998 : (     -1.004769   -1.004769   -0.143538  )      1.428189  |
 | b-vector   999 : (     -1.291846   -0.430615   -0.430615  )      1.428189  |
 | b-vector  1000 : (     -1.004769   -1.004769    0.143538  )      1.428189  |
 | b-vector  1001 : (      0.717692    1.004769   -0.717692  )      1.428189  |
 | b-vector  1002 : (      0.143538    1.004769   -1.004769  )      1.428189  |
 | b-vector  1003 : (      1.004769    1.004769   -0.143538  )      1.428189  |
 | b-vector  1004 : (     -0.143538    1.004769   -1.004769  )      1.428189  |
 | b-vector  1005 : (      0.430615    1.291846   -0.430615  )      1.428189  |
 | b-vector  1006 : (      1.004769    1.004769    0.143538  )      1.428189  |
 | b-vector  1007 : (      1.004769   -0.143538   -1.004769  )      1.428189  |
 | b-vector  1008 : (      1.004769    0.143538   -1.004769  )      1.428189  |
 | b-vector  1009 : (      0.717692   -0.717692   -1.004769  )      1.428189  |
 | b-vector  1010 : (      0.430615   -0.430615   -1.291846  )      1.428189  |
 | b-vector  1011 : (      1.004769   -0.717692   -0.717692  )      1.428189  |
 | b-vector  1012 : (      1.291846   -0.430615   -0.430615  )      1.428189  |
 | b-vector  1013 : (      0.717692   -1.004769   -0.717692  )      1.428189  |
 | b-vector  1014 : (      0.143538   -1.004769   -1.004769  )      1.428189  |
 | b-vector  1015 : (      1.004769   -1.004769   -0.143538  )      1.428189  |
 | b-vector  1016 : (     -0.143538   -1.004769   -1.004769  )      1.428189  |
 | b-vector  1017 : (      0.430615   -1.291846   -0.430615  )      1.428189  |
 | b-vector  1018 : (      1.004769   -1.004769    0.143538  )      1.428189  |
 | b-vector  1019 : (     -0.430615   -1.291846   -0.430615  )      1.428189  |
 | b-vector  1020 : (     -0.717692   -1.004769   -0.717692  )      1.428189  |
 | b-vector  1021 : (      0.430615   -1.291846    0.430615  )      1.428189  |
 | b-vector  1022 : (      0.717692   -1.004769    0.717692  )      1.428189  |
 | b-vector  1023 : (     -0.430615   -1.291846    0.430615  )      1.428189  |
 | b-vector  1024 : (     -0.717692   -1.004769    0.717692  )      1.428189  |
 | b-vector  1025 : (      1.291846    0.430615   -0.430615  )      1.428189  |
 | b-vector  1026 : (      1.004769    0.717692   -0.717692  )      1.428189  |
 | b-vector  1027 : (      1.291846   -0.430615    0.430615  )      1.428189  |
 | b-vector  1028 : (      1.291846    0.430615    0.430615  )      1.428189  |
 | b-vector  1029 : (      1.004769   -0.717692    0.717692  )      1.428189  |
 | b-vector  1030 : (      1.004769    0.717692    0.717692  )      1.428189  |
 | b-vector  1031 : (      0.430615    0.430615   -1.291846  )      1.428189  |
 | b-vector  1032 : (      0.717692    0.717692   -1.004769  )      1.428189  |
 | b-vector  1033 : (     -0.430615   -0.430615   -1.291846  )      1.428189  |
 | b-vector  1034 : (     -0.430615    0.430615   -1.291846  )      1.428189  |
 | b-vector  1035 : (     -0.717692   -0.717692   -1.004769  )      1.428189  |
 | b-vector  1036 : (     -0.717692    0.717692   -1.004769  )      1.428189  |
 | b-vector  1037 : (      0.000000    1.435384    0.000000  )      1.435384  |
 | b-vector  1038 : (     -0.861231    1.148307    0.000000  )      1.435384  |
 | b-vector  1039 : (     -0.000000    1.148307    0.861231  )      1.435384  |
 | b-vector  1040 : (     -1.148307    0.861231    0.000000  )      1.435384  |
 | b-vector  1041 : (     -0.000000    0.861231    1.148307  )      1.435384  |
 | b-vector  1042 : (     -1.435384    0.000000    0.000000  )      1.435384  |
 | b-vector  1043 : (      0.000000    0.000000    1.435384  )      1.435384  |
 | b-vector  1044 : (     -1.148307    0.000000    0.861231  )      1.435384  |
 | b-vector  1045 : (     -0.861231    0.000000    1.148307  )      1.435384  |
 | b-vector  1046 : (      0.861231    0.000000    1.148307  )      1.435384  |
 | b-vector  1047 : (      0.000000   -0.861231    1.148307  )      1.435384  |
 | b-vector  1048 : (     -1.148307    0.000000   -0.861231  )      1.435384  |
 | b-vector  1049 : (     -1.148307   -0.861231   -0.000000  )      1.435384  |
 | b-vector  1050 : (      0.000000    1.148307   -0.861231  )      1.435384  |
 | b-vector  1051 : (      0.861231    1.148307   -0.000000  )      1.435384  |
 | b-vector  1052 : (      0.861231    0.000000   -1.148307  )      1.435384  |
 | b-vector  1053 : (      1.148307    0.000000   -0.861231  )      1.435384  |
 | b-vector  1054 : (      0.000000   -0.861231   -1.148307  )      1.435384  |
 | b-vector  1055 : (      1.148307   -0.861231   -0.000000  )      1.435384  |
 | b-vector  1056 : (      0.000000   -1.148307   -0.861231  )      1.435384  |
 | b-vector  1057 : (      0.861231   -1.148307   -0.000000  )      1.435384  |
 | b-vector  1058 : (      0.000000   -1.435384    0.000000  )      1.435384  |
 | b-vector  1059 : (     -0.861231   -1.148307    0.000000  )      1.435384  |
 | b-vector  1060 : (     -0.000000   -1.148307    0.861231  )      1.435384  |
 | b-vector  1061 : (      1.435384    0.000000    0.000000  )      1.435384  |
 | b-vector  1062 : (      1.148307    0.861231    0.000000  )      1.435384  |
 | b-vector  1063 : (      1.148307    0.000000    0.861231  )      1.435384  |
 | b-vector  1064 : (      0.000000    0.000000   -1.435384  )      1.435384  |
 | b-vector  1065 : (     -0.000000    0.861231   -1.148307  )      1.435384  |
 | b-vector  1066 : (     -0.861231    0.000000   -1.148307  )      1.435384  |
 | b-vector  1067 : (     -0.287077    1.435384   -0.000000  )      1.463811  |
 | b-vector  1068 : (      0.000000    1.435384    0.287077  )      1.463811  |
 | b-vector  1069 : (     -0.861231    1.148307   -0.287077  )      1.463811  |
 | b-vector  1070 : (      0.287077    1.148307    0.861231  )      1.463811  |
 | b-vector  1071 : (     -1.148307    0.861231   -0.287077  )      1.463811  |
 | b-vector  1072 : (      0.287077    0.861231    1.148307  )      1.463811  |
 | b-vector  1073 : (     -0.861231    1.148307    0.287077  )      1.463811  |
 | b-vector  1074 : (     -0.287077    1.148307    0.861231  )      1.463811  |
 | b-vector  1075 : (     -1.435384    0.287077   -0.000000  )      1.463811  |
 | b-vector  1076 : (     -1.148307    0.861231    0.287077  )      1.463811  |
 | b-vector  1077 : (      0.000000    0.287077    1.435384  )      1.463811  |
 | b-vector  1078 : (     -0.287077    0.861231    1.148307  )      1.463811  |
 | b-vector  1079 : (     -1.435384   -0.000000    0.287077  )      1.463811  |
 | b-vector  1080 : (     -0.287077   -0.000000    1.435384  )      1.463811  |
 | b-vector  1081 : (     -1.148307   -0.287077    0.861231  )      1.463811  |
 | b-vector  1082 : (     -0.861231   -0.287077    1.148307  )      1.463811  |
 | b-vector  1083 : (     -1.148307    0.287077    0.861231  )      1.463811  |
 | b-vector  1084 : (     -0.861231    0.287077    1.148307  )      1.463811  |
 | b-vector  1085 : (      0.861231   -0.287077    1.148307  )      1.463811  |
 | b-vector  1086 : (      0.861231    0.287077    1.148307  )      1.463811  |
 | b-vector  1087 : (      0.287077   -0.861231    1.148307  )      1.463811  |
 | b-vector  1088 : (      0.287077   -0.000000    1.435384  )      1.463811  |
 | b-vector  1089 : (     -0.287077   -0.861231    1.148307  )      1.463811  |
 | b-vector  1090 : (      0.000000   -0.287077    1.435384  )      1.463811  |
 | b-vector  1091 : (     -1.148307   -0.287077   -0.861231  )      1.463811  |
 | b-vector  1092 : (     -1.148307    0.287077   -0.861231  )      1.463811  |
 | b-vector  1093 : (     -1.148307   -0.861231   -0.287077  )      1.463811  |
 | b-vector  1094 : (     -1.435384   -0.000000   -0.287077  )      1.463811  |
 | b-vector  1095 : (     -1.148307   -0.861231    0.287077  )      1.463811  |
 | b-vector  1096 : (     -1.435384   -0.287077   -0.000000  )      1.463811  |
 | b-vector  1097 : (      0.287077    1.148307   -0.861231  )      1.463811  |
 | b-vector  1098 : (      0.861231    1.148307   -0.287077  )      1.463811  |
 | b-vector  1099 : (     -0.287077    1.148307   -0.861231  )      1.463811  |
 | b-vector  1100 : (      0.861231    1.148307    0.287077  )      1.463811  |
 | b-vector  1101 : (      0.000000    1.435384   -0.287077  )      1.463811  |
 | b-vector  1102 : (      0.287077    1.435384   -0.000000  )      1.463811  |
 | b-vector  1103 : (      0.861231   -0.287077   -1.148307  )      1.463811  |
 | b-vector  1104 : (      1.148307   -0.287077   -0.861231  )      1.463811  |
 | b-vector  1105 : (      0.861231    0.287077   -1.148307  )      1.463811  |
 | b-vector  1106 : (      1.148307    0.287077   -0.861231  )      1.463811  |
 | b-vector  1107 : (      0.287077    0.000000   -1.435384  )      1.463811  |
 | b-vector  1108 : (      1.435384    0.000000   -0.287077  )      1.463811  |
 | b-vector  1109 : (      0.287077   -0.861231   -1.148307  )      1.463811  |
 | b-vector  1110 : (      0.000000   -0.287077   -1.435384  )      1.463811  |
 | b-vector  1111 : (      1.148307   -0.861231   -0.287077  )      1.463811  |
 | b-vector  1112 : (      1.435384   -0.287077    0.000000  )      1.463811  |
 | b-vector  1113 : (      0.287077   -1.148307   -0.861231  )      1.463811  |
 | b-vector  1114 : (      0.861231   -1.148307   -0.287077  )      1.463811  |
 | b-vector  1115 : (     -0.287077   -0.861231   -1.148307  )      1.463811  |
 | b-vector  1116 : (      1.148307   -0.861231    0.287077  )      1.463811  |
 | b-vector  1117 : (     -0.287077   -1.148307   -0.861231  )      1.463811  |
 | b-vector  1118 : (      0.861231   -1.148307    0.287077  )      1.463811  |
 | b-vector  1119 : (      0.000000   -1.435384   -0.287077  )      1.463811  |
 | b-vector  1120 : (      0.287077   -1.435384    0.000000  )      1.463811  |
 | b-vector  1121 : (     -0.287077   -1.435384    0.000000  )      1.463811  |
 | b-vector  1122 : (      0.000000   -1.435384    0.287077  )      1.463811  |
 | b-vector  1123 : (     -0.861231   -1.148307   -0.287077  )      1.463811  |
 | b-vector  1124 : (      0.287077   -1.148307    0.861231  )      1.463811  |
 | b-vector  1125 : (     -0.861231   -1.148307    0.287077  )      1.463811  |
 | b-vector  1126 : (     -0.287077   -1.148307    0.861231  )      1.463811  |
 | b-vector  1127 : (      1.435384    0.287077    0.000000  )      1.463811  |
 | b-vector  1128 : (      1.148307    0.861231   -0.287077  )      1.463811  |
 | b-vector  1129 : (      1.435384    0.000000    0.287077  )      1.463811  |
 | b-vector  1130 : (      1.148307    0.861231    0.287077  )      1.463811  |
 | b-vector  1131 : (      1.148307   -0.287077    0.861231  )      1.463811  |
 | b-vector  1132 : (      1.148307    0.287077    0.861231  )      1.463811  |
 | b-vector  1133 : (     -0.000000    0.287077   -1.435384  )      1.463811  |
 | b-vector  1134 : (      0.287077    0.861231   -1.148307  )      1.463811  |
 | b-vector  1135 : (     -0.287077    0.000000   -1.435384  )      1.463811  |
 | b-vector  1136 : (     -0.287077    0.861231   -1.148307  )      1.463811  |
 | b-vector  1137 : (     -0.861231   -0.287077   -1.148307  )      1.463811  |
 | b-vector  1138 : (     -0.861231    0.287077   -1.148307  )      1.463811  |
 |                                                                            |
 +----------------------------------------------------------------------------+
 | The b-vectors are chosen automatically                                     |
 | Shell:  1 Multiplicity:  8                                                 |
 | b-vector 1 :       -0.143538    0.143538   -0.143538      (Ang^-1)         |
 | b-vector 2 :        0.143538    0.143538    0.143538      (Ang^-1)         |
 | b-vector 3 :       -0.143538   -0.143538    0.143538      (Ang^-1)         |
 | b-vector 4 :       -0.143538    0.143538    0.143538      (Ang^-1)         |
 | b-vector 5 :        0.143538   -0.143538    0.143538      (Ang^-1)         |
 | b-vector 6 :       -0.143538   -0.143538   -0.143538      (Ang^-1)         |
 | b-vector 7 :        0.143538    0.143538   -0.143538      (Ang^-1)         |
 | b-vector 8 :        0.143538   -0.143538   -0.143538      (Ang^-1)         |
 | Shell:  1 w_b    6.0669943      (Ang^2)                                    |
 | The following shells are used:   1                                         |
 +----------------------------------------------------------------------------+
 |                        Shell   # Nearest-Neighbours                        |
 |                        -----   --------------------                        |
 |                          1               8                                 |
 +----------------------------------------------------------------------------+
 | Completeness relation is fully satisfied [Eq. (B1), PRB 56, 12847 (1997)]  |
 +----------------------------------------------------------------------------+
 |                  b_k Vectors (Ang^-1) and Weights (Ang^2)                  |
 |                  ----------------------------------------                  |
 |            No.         b_k(x)      b_k(y)      b_k(z)        w_b           |
 |            ---        --------------------------------     --------        |
 |             1        -0.143538    0.143538   -0.143538     6.066994        |
 |             2         0.143538    0.143538    0.143538     6.066994        |
 |             3        -0.143538   -0.143538    0.143538     6.066994        |
 |             4        -0.143538    0.143538    0.143538     6.066994        |
 |             5         0.143538   -0.143538    0.143538     6.066994        |
 |             6        -0.143538   -0.143538   -0.143538     6.066994        |
 |             7         0.143538    0.143538   -0.143538     6.066994        |
 |             8         0.143538   -0.143538   -0.143538     6.066994        |
 +----------------------------------------------------------------------------+
 |                           b_k Directions (Ang^-1)                          |
 |                           -----------------------                          |
 |            No.           x           y           z                         |
 |            ---        --------------------------------                     |
 |             1        -0.143538    0.143538   -0.143538                     |
 |             2         0.143538    0.143538    0.143538                     |
 |             3        -0.143538   -0.143538    0.143538                     |
 |             4        -0.143538    0.143538    0.143538                     |
 +----------------------------------------------------------------------------+
  
 Time to get kmesh              0.209 (sec)
 *============================================================================*
 |                              MEMORY ESTIMATE                               |
 |         Maximum RAM allocated during each phase of the calculation         |
 *============================================================================*
 |                        Disentanglement           21.54 Mb                  |
 |                            Wannierise:            3.89 Mb                  |
 |                                                                            |
 |   N.B. by setting optimisation=0 memory usage will be reduced to:          |
 |                        Disentanglement           21.54 Mb                  |
 |                            Wannierise:            2.89 Mb                  |
 |   However, this will result in more i/o and slow down the calculation      |
 |                          plot_wannier:            3.89 Mb                  |
 *----------------------------------------------------------------------------*
  
 Starting a new Wannier90 calculation ...


 Reading overlaps from alp.mmn    :  Created on 23Mar2024 at 18:28:18

 Reading projections from alp.amn :  Created on 23Mar2024 at 18:27:43
 Exiting.......
 alp.amn has not the right number of projections
