
     Program PWSCF v.6.7MaX starts on 22Mar2024 at 18:24:19 

     This program is part of the open-source Quantum ESPRESSO suite
     for quantum simulation of materials; please cite
         "P. Giannozzi et al., J. Phys.:Condens. Matter 21 395502 (2009);
         "P. Giannozzi et al., J. Phys.:Condens. Matter 29 465901 (2017);
          URL http://www.quantum-espresso.org", 
     in publications or presentations arising from this work. More details at
     http://www.quantum-espresso.org/quote

     Parallel version (MPI), running on     4 processors

     MPI processes distributed on     1 nodes
     R & G space division:  proc/nbgrp/npool/nimage =       4
     Waiting for input...
     Reading input from standard input

     Current dimensions of program PWSCF are:
     Max number of different atomic species (ntypx) = 10
     Max number of k-points (npk) =  40000
     Max angular momentum in pseudopotentials (lmaxx) =  3

     Atomic positions and unit cell read from directory:
     ../tmp/alp.save/
     Atomic positions from file used, from input discarded

     file Al.rel-pbe-n-kjpaw_psl.1.0.0.UPF: wavefunction(s)  3S 3P 3P renormalized
     file P.rel-pbe-n-kjpaw_psl.1.0.0.UPF: wavefunction(s)  3S 3P 3P renormalized

     Subspace diagonalization in iterative solution of the eigenvalue problem:
     one sub-group per band group will be used
     scalapack distributed-memory algorithm (size of sub-group:  2*  2 procs)


     Parallelization info
     --------------------
     sticks:   dense  smooth     PW     G-vecs:    dense   smooth      PW
     Min         219     109     40                 4315     1545     322
     Max         220     110     42                 4316     1547     323
     Sum         877     439    163                17261     6183    1291



     bravais-lattice index     =            2
     lattice parameter (alat)  =      10.3400  a.u.
     unit-cell volume          =     276.3768 (a.u.)^3
     number of atoms/cell      =            2
     number of atomic types    =            2
     number of electrons       =         8.00
     number of Kohn-Sham states=           16
     kinetic-energy cutoff     =      30.0000  Ry
     charge density cutoff     =     240.0000  Ry
     Exchange-correlation= SLA  PW   PBX  PBC
                           (   1   4   3   4   0   0   0)
     Non magnetic calculation with spin-orbit


     celldm(1)=  10.340000  celldm(2)=   0.000000  celldm(3)=   0.000000
     celldm(4)=   0.000000  celldm(5)=   0.000000  celldm(6)=   0.000000

     crystal axes: (cart. coord. in units of alat)
               a(1) = (  -0.500000   0.000000   0.500000 )  
               a(2) = (   0.000000   0.500000   0.500000 )  
               a(3) = (  -0.500000   0.500000   0.000000 )  

     reciprocal axes: (cart. coord. in units 2 pi/alat)
               b(1) = ( -1.000000 -1.000000  1.000000 )  
               b(2) = (  1.000000  1.000000  1.000000 )  
               b(3) = ( -1.000000  1.000000 -1.000000 )  


     PseudoPot. # 1 for Al read from file:
     ../pseudo/Al.rel-pbe-n-kjpaw_psl.1.0.0.UPF
     MD5 check sum: dd46ca3b97fcdce4065e001a8b71f70f
     Pseudo is Projector augmented-wave + core cor, Zval =  3.0
     Generated using &quot;atomic&quot; code by A. Dal Corso  v.6.5
     Shape of augmentation charge: PSQ
     Using radial grid of 1135 points, 10 beta functions with: 
                l(1) =   0
                l(2) =   0
                l(3) =   1
                l(4) =   1
                l(5) =   1
                l(6) =   1
                l(7) =   2
                l(8) =   2
                l(9) =   2
               l(10) =   2
     Q(r) pseudized with 0 coefficients 


     PseudoPot. # 2 for P  read from file:
     ../pseudo/P.rel-pbe-n-kjpaw_psl.1.0.0.UPF
     MD5 check sum: b8b1f41b72eb33979940a8684e520c22
     Pseudo is Projector augmented-wave + core cor, Zval =  5.0
     Generated using &quot;atomic&quot; code by A. Dal Corso  v.6.5
     Shape of augmentation charge: PSQ
     Using radial grid of 1147 points, 10 beta functions with: 
                l(1) =   0
                l(2) =   0
                l(3) =   1
                l(4) =   1
                l(5) =   1
                l(6) =   1
                l(7) =   2
                l(8) =   2
                l(9) =   2
               l(10) =   2
     Q(r) pseudized with 0 coefficients 


     atomic species   valence    mass     pseudopotential
        Al             3.00    26.98154     Al( 1.00)
        P              5.00    30.97376     P ( 1.00)

     24 Sym. Ops. (no inversion) found


                                    s                        frac. trans.

      isym =  1     identity                                     

 cryst.   s( 1) = (     1          0          0      )
                  (     0          1          0      )
                  (     0          0          1      )

 cart.    s( 1) = (  1.0000000  0.0000000  0.0000000 )
                  (  0.0000000  1.0000000  0.0000000 )
                  (  0.0000000  0.0000000  1.0000000 )


      isym =  2     180 deg rotation - cart. axis [0,0,1]        

 cryst.   s( 2) = (     0          1         -1      )
                  (     1          0         -1      )
                  (     0          0         -1      )

 cart.    s( 2) = ( -1.0000000  0.0000000  0.0000000 )
                  (  0.0000000 -1.0000000  0.0000000 )
                  (  0.0000000  0.0000000  1.0000000 )


      isym =  3     180 deg rotation - cart. axis [0,1,0]        

 cryst.   s( 3) = (    -1          0          0      )
                  (    -1          0          1      )
                  (    -1          1          0      )

 cart.    s( 3) = ( -1.0000000  0.0000000  0.0000000 )
                  (  0.0000000  1.0000000  0.0000000 )
                  (  0.0000000  0.0000000 -1.0000000 )


      isym =  4     180 deg rotation - cart. axis [1,0,0]        

 cryst.   s( 4) = (     0         -1          1      )
                  (     0         -1          0      )
                  (     1         -1          0      )

 cart.    s( 4) = (  1.0000000  0.0000000  0.0000000 )
                  (  0.0000000 -1.0000000  0.0000000 )
                  (  0.0000000  0.0000000 -1.0000000 )


      isym =  5     120 deg rotation - cart. axis [-1,-1,-1]     

 cryst.   s( 5) = (    -1          0          1      )
                  (    -1          1          0      )
                  (    -1          0          0      )

 cart.    s( 5) = (  0.0000000  1.0000000  0.0000000 )
                  (  0.0000000  0.0000000  1.0000000 )
                  (  1.0000000  0.0000000  0.0000000 )


      isym =  6     120 deg rotation - cart. axis [-1,1,1]       

 cryst.   s( 6) = (     0          1          0      )
                  (     0          0          1      )
                  (     1          0          0      )

 cart.    s( 6) = (  0.0000000 -1.0000000  0.0000000 )
                  (  0.0000000  0.0000000  1.0000000 )
                  ( -1.0000000  0.0000000  0.0000000 )


      isym =  7     120 deg rotation - cart. axis [1,1,-1]       

 cryst.   s( 7) = (     1          0         -1      )
                  (     0          0         -1      )
                  (     0          1         -1      )

 cart.    s( 7) = (  0.0000000  1.0000000  0.0000000 )
                  (  0.0000000  0.0000000 -1.0000000 )
                  ( -1.0000000  0.0000000  0.0000000 )


      isym =  8     120 deg rotation - cart. axis [1,-1,1]       

 cryst.   s( 8) = (     0         -1          0      )
                  (     1         -1          0      )
                  (     0         -1          1      )

 cart.    s( 8) = (  0.0000000 -1.0000000  0.0000000 )
                  (  0.0000000  0.0000000 -1.0000000 )
                  (  1.0000000  0.0000000  0.0000000 )


      isym =  9     120 deg rotation - cart. axis [1,1,1]        

 cryst.   s( 9) = (     0          0         -1      )
                  (     0          1         -1      )
                  (     1          0         -1      )

 cart.    s( 9) = (  0.0000000  0.0000000  1.0000000 )
                  (  1.0000000  0.0000000  0.0000000 )
                  (  0.0000000  1.0000000  0.0000000 )


      isym = 10     120 deg rotation - cart. axis [-1,1,-1]      

 cryst.   s(10) = (    -1          1          0      )
                  (    -1          0          0      )
                  (    -1          0          1      )

 cart.    s(10) = (  0.0000000  0.0000000  1.0000000 )
                  ( -1.0000000  0.0000000  0.0000000 )
                  (  0.0000000 -1.0000000  0.0000000 )


      isym = 11     120 deg rotation - cart. axis [1,-1,-1]      

 cryst.   s(11) = (     0          0          1      )
                  (     1          0          0      )
                  (     0          1          0      )

 cart.    s(11) = (  0.0000000  0.0000000 -1.0000000 )
                  ( -1.0000000  0.0000000  0.0000000 )
                  (  0.0000000  1.0000000  0.0000000 )


      isym = 12     120 deg rotation - cart. axis [-1,-1,1]      

 cryst.   s(12) = (     1         -1          0      )
                  (     0         -1          1      )
                  (     0         -1          0      )

 cart.    s(12) = (  0.0000000  0.0000000 -1.0000000 )
                  (  1.0000000  0.0000000  0.0000000 )
                  (  0.0000000 -1.0000000  0.0000000 )


      isym = 13     inv. 180 deg rotation - cart. axis [1,1,0]   

 cryst.   s(13) = (     0          1          0      )
                  (     1          0          0      )
                  (     0          0          1      )

 cart.    s(13) = (  0.0000000 -1.0000000  0.0000000 )
                  ( -1.0000000  0.0000000  0.0000000 )
                  (  0.0000000  0.0000000  1.0000000 )


      isym = 14     inv. 180 deg rotation - cart. axis [1,-1,0]  

 cryst.   s(14) = (     1          0         -1      )
                  (     0          1         -1      )
                  (     0          0         -1      )

 cart.    s(14) = (  0.0000000  1.0000000  0.0000000 )
                  (  1.0000000  0.0000000  0.0000000 )
                  (  0.0000000  0.0000000  1.0000000 )


      isym = 15     inv.  90 deg rotation - cart. axis [0,0,-1]  

 cryst.   s(15) = (     0         -1          0      )
                  (     0         -1          1      )
                  (     1         -1          0      )

 cart.    s(15) = (  0.0000000 -1.0000000  0.0000000 )
                  (  1.0000000  0.0000000  0.0000000 )
                  (  0.0000000  0.0000000 -1.0000000 )


      isym = 16     inv.  90 deg rotation - cart. axis [0,0,1]   

 cryst.   s(16) = (    -1          0          1      )
                  (    -1          0          0      )
                  (    -1          1          0      )

 cart.    s(16) = (  0.0000000  1.0000000  0.0000000 )
                  ( -1.0000000  0.0000000  0.0000000 )
                  (  0.0000000  0.0000000 -1.0000000 )


      isym = 17     inv. 180 deg rotation - cart. axis [1,0,1]   

 cryst.   s(17) = (     1          0          0      )
                  (     0          0          1      )
                  (     0          1          0      )

 cart.    s(17) = (  0.0000000  0.0000000 -1.0000000 )
                  (  0.0000000  1.0000000  0.0000000 )
                  ( -1.0000000  0.0000000  0.0000000 )


      isym = 18     inv. 180 deg rotation - cart. axis [-1,0,1]  

 cryst.   s(18) = (    -1          0          0      )
                  (    -1          1          0      )
                  (    -1          0          1      )

 cart.    s(18) = (  0.0000000  0.0000000  1.0000000 )
                  (  0.0000000  1.0000000  0.0000000 )
                  (  1.0000000  0.0000000  0.0000000 )


      isym = 19     inv.  90 deg rotation - cart. axis [0,1,0]   

 cryst.   s(19) = (     0         -1          1      )
                  (     1         -1          0      )
                  (     0         -1          0      )

 cart.    s(19) = (  0.0000000  0.0000000 -1.0000000 )
                  (  0.0000000 -1.0000000  0.0000000 )
                  (  1.0000000  0.0000000  0.0000000 )


      isym = 20     inv.  90 deg rotation - cart. axis [0,-1,0]  

 cryst.   s(20) = (     0          1         -1      )
                  (     0          0         -1      )
                  (     1          0         -1      )

 cart.    s(20) = (  0.0000000  0.0000000  1.0000000 )
                  (  0.0000000 -1.0000000  0.0000000 )
                  ( -1.0000000  0.0000000  0.0000000 )


      isym = 21     inv. 180 deg rotation - cart. axis [0,1,1]   

 cryst.   s(21) = (     1         -1          0      )
                  (     0         -1          0      )
                  (     0         -1          1      )

 cart.    s(21) = (  1.0000000  0.0000000  0.0000000 )
                  (  0.0000000  0.0000000 -1.0000000 )
                  (  0.0000000 -1.0000000  0.0000000 )


      isym = 22     inv. 180 deg rotation - cart. axis [0,1,-1]  

 cryst.   s(22) = (     0          0          1      )
                  (     0          1          0      )
                  (     1          0          0      )

 cart.    s(22) = (  1.0000000  0.0000000  0.0000000 )
                  (  0.0000000  0.0000000  1.0000000 )
                  (  0.0000000  1.0000000  0.0000000 )


      isym = 23     inv.  90 deg rotation - cart. axis [-1,0,0]  

 cryst.   s(23) = (     0          0         -1      )
                  (     1          0         -1      )
                  (     0          1         -1      )

 cart.    s(23) = ( -1.0000000  0.0000000  0.0000000 )
                  (  0.0000000  0.0000000 -1.0000000 )
                  (  0.0000000  1.0000000  0.0000000 )


      isym = 24     inv.  90 deg rotation - cart. axis [1,0,0]   

 cryst.   s(24) = (    -1          1          0      )
                  (    -1          0          1      )
                  (    -1          0          0      )

 cart.    s(24) = ( -1.0000000  0.0000000  0.0000000 )
                  (  0.0000000  0.0000000  1.0000000 )
                  (  0.0000000 -1.0000000  0.0000000 )


     double point group T_d (-43m) 
     there are  8 classes and  3 irreducible representations
     the character table:

       E     -E    8C3   -8C3   3C2  6S4   -6S4  6s_d 
                               -3C2              -6s_d
G_6    2.00 -2.00  1.00 -1.00  0.00  1.41 -1.41  0.00
G_7    2.00 -2.00  1.00 -1.00  0.00 -1.41  1.41  0.00
G_8    4.00 -4.00 -1.00  1.00  0.00  0.00  0.00  0.00

     the symmetry operations in each class and the name of the first element:

     E             1
          identity                                               
     -E           -1
          identity E                                             
     8C3           5    7    8    6   12    9   10   11
          120 deg rotation - cart. axis [-1,-1,-1]               
     -8C3         -5   -7   -8   -6  -12   -9  -10  -11
          120 deg rotation - cart. axis [-1,-1,-1] E             
      3C2 -3C2     2   -2    3   -3    4   -4
          180 deg rotation - cart. axis [0,0,1]                  
     6S4          15   16   20   19   23   24
          inv.  90 deg rotation - cart. axis [0,0,-1]            
     -6S4        -15  -16  -20  -19  -23  -24
          inv.  90 deg rotation - cart. axis [0,0,-1] E          
     6s_d -6s_d   13  -13  -14   14   17  -17  -18   18   21  -21   22  -22
          inv. 180 deg rotation - cart. axis [1,1,0]             

   Cartesian axes

     site n.     atom                  positions (alat units)
         1           Al  tau(   1) = (   0.0000000   0.0000000   0.0000000  )
         2           P   tau(   2) = (  -0.2500000   0.2500000   0.2500000  )

   Crystallographic axes

     site n.     atom                  positions (cryst. coord.)
         1           Al  tau(   1) = (  0.0000000  0.0000000  0.0000000  )
         2           P   tau(   2) = (  0.2500000  0.2500000  0.2500000  )

     number of k points=   512  Marzari-Vanderbilt smearing, width (Ry)=  0.0200
                       cart. coord. in units 2pi/alat
        k(    1) = (   0.0000000   0.0000000   0.0000000), wk =   0.0019531
        k(    2) = (  -0.1250000   0.1250000  -0.1250000), wk =   0.0019531
        k(    3) = (  -0.2500000   0.2500000  -0.2500000), wk =   0.0019531
        k(    4) = (  -0.3750000   0.3750000  -0.3750000), wk =   0.0019531
        k(    5) = (  -0.5000000   0.5000000  -0.5000000), wk =   0.0019531
        k(    6) = (  -0.6250000   0.6250000  -0.6250000), wk =   0.0019531
        k(    7) = (  -0.7500000   0.7500000  -0.7500000), wk =   0.0019531
        k(    8) = (  -0.8750000   0.8750000  -0.8750000), wk =   0.0019531
        k(    9) = (   0.1250000   0.1250000   0.1250000), wk =   0.0019531
        k(   10) = (   0.0000000   0.2500000   0.0000000), wk =   0.0019531
        k(   11) = (  -0.1250000   0.3750000  -0.1250000), wk =   0.0019531
        k(   12) = (  -0.2500000   0.5000000  -0.2500000), wk =   0.0019531
        k(   13) = (  -0.3750000   0.6250000  -0.3750000), wk =   0.0019531
        k(   14) = (  -0.5000000   0.7500000  -0.5000000), wk =   0.0019531
        k(   15) = (  -0.6250000   0.8750000  -0.6250000), wk =   0.0019531
        k(   16) = (  -0.7500000   1.0000000  -0.7500000), wk =   0.0019531
        k(   17) = (   0.2500000   0.2500000   0.2500000), wk =   0.0019531
        k(   18) = (   0.1250000   0.3750000   0.1250000), wk =   0.0019531
        k(   19) = (   0.0000000   0.5000000   0.0000000), wk =   0.0019531
        k(   20) = (  -0.1250000   0.6250000  -0.1250000), wk =   0.0019531
        k(   21) = (  -0.2500000   0.7500000  -0.2500000), wk =   0.0019531
        k(   22) = (  -0.3750000   0.8750000  -0.3750000), wk =   0.0019531
        k(   23) = (  -0.5000000   1.0000000  -0.5000000), wk =   0.0019531
        k(   24) = (  -0.6250000   1.1250000  -0.6250000), wk =   0.0019531
        k(   25) = (   0.3750000   0.3750000   0.3750000), wk =   0.0019531
        k(   26) = (   0.2500000   0.5000000   0.2500000), wk =   0.0019531
        k(   27) = (   0.1250000   0.6250000   0.1250000), wk =   0.0019531
        k(   28) = (   0.0000000   0.7500000   0.0000000), wk =   0.0019531
        k(   29) = (  -0.1250000   0.8750000  -0.1250000), wk =   0.0019531
        k(   30) = (  -0.2500000   1.0000000  -0.2500000), wk =   0.0019531
        k(   31) = (  -0.3750000   1.1250000  -0.3750000), wk =   0.0019531
        k(   32) = (  -0.5000000   1.2500000  -0.5000000), wk =   0.0019531
        k(   33) = (   0.5000000   0.5000000   0.5000000), wk =   0.0019531
        k(   34) = (   0.3750000   0.6250000   0.3750000), wk =   0.0019531
        k(   35) = (   0.2500000   0.7500000   0.2500000), wk =   0.0019531
        k(   36) = (   0.1250000   0.8750000   0.1250000), wk =   0.0019531
        k(   37) = (   0.0000000   1.0000000   0.0000000), wk =   0.0019531
        k(   38) = (  -0.1250000   1.1250000  -0.1250000), wk =   0.0019531
        k(   39) = (  -0.2500000   1.2500000  -0.2500000), wk =   0.0019531
        k(   40) = (  -0.3750000   1.3750000  -0.3750000), wk =   0.0019531
        k(   41) = (   0.6250000   0.6250000   0.6250000), wk =   0.0019531
        k(   42) = (   0.5000000   0.7500000   0.5000000), wk =   0.0019531
        k(   43) = (   0.3750000   0.8750000   0.3750000), wk =   0.0019531
        k(   44) = (   0.2500000   1.0000000   0.2500000), wk =   0.0019531
        k(   45) = (   0.1250000   1.1250000   0.1250000), wk =   0.0019531
        k(   46) = (   0.0000000   1.2500000   0.0000000), wk =   0.0019531
        k(   47) = (  -0.1250000   1.3750000  -0.1250000), wk =   0.0019531
        k(   48) = (  -0.2500000   1.5000000  -0.2500000), wk =   0.0019531
        k(   49) = (   0.7500000   0.7500000   0.7500000), wk =   0.0019531
        k(   50) = (   0.6250000   0.8750000   0.6250000), wk =   0.0019531
        k(   51) = (   0.5000000   1.0000000   0.5000000), wk =   0.0019531
        k(   52) = (   0.3750000   1.1250000   0.3750000), wk =   0.0019531
        k(   53) = (   0.2500000   1.2500000   0.2500000), wk =   0.0019531
        k(   54) = (   0.1250000   1.3750000   0.1250000), wk =   0.0019531
        k(   55) = (   0.0000000   1.5000000   0.0000000), wk =   0.0019531
        k(   56) = (  -0.1250000   1.6250000  -0.1250000), wk =   0.0019531
        k(   57) = (   0.8750000   0.8750000   0.8750000), wk =   0.0019531
        k(   58) = (   0.7500000   1.0000000   0.7500000), wk =   0.0019531
        k(   59) = (   0.6250000   1.1250000   0.6250000), wk =   0.0019531
        k(   60) = (   0.5000000   1.2500000   0.5000000), wk =   0.0019531
        k(   61) = (   0.3750000   1.3750000   0.3750000), wk =   0.0019531
        k(   62) = (   0.2500000   1.5000000   0.2500000), wk =   0.0019531
        k(   63) = (   0.1250000   1.6250000   0.1250000), wk =   0.0019531
        k(   64) = (   0.0000000   1.7500000   0.0000000), wk =   0.0019531
        k(   65) = (  -0.1250000  -0.1250000   0.1250000), wk =   0.0019531
        k(   66) = (  -0.2500000   0.0000000   0.0000000), wk =   0.0019531
        k(   67) = (  -0.3750000   0.1250000  -0.1250000), wk =   0.0019531
        k(   68) = (  -0.5000000   0.2500000  -0.2500000), wk =   0.0019531
        k(   69) = (  -0.6250000   0.3750000  -0.3750000), wk =   0.0019531
        k(   70) = (  -0.7500000   0.5000000  -0.5000000), wk =   0.0019531
        k(   71) = (  -0.8750000   0.6250000  -0.6250000), wk =   0.0019531
        k(   72) = (  -1.0000000   0.7500000  -0.7500000), wk =   0.0019531
        k(   73) = (   0.0000000   0.0000000   0.2500000), wk =   0.0019531
        k(   74) = (  -0.1250000   0.1250000   0.1250000), wk =   0.0019531
        k(   75) = (  -0.2500000   0.2500000   0.0000000), wk =   0.0019531
        k(   76) = (  -0.3750000   0.3750000  -0.1250000), wk =   0.0019531
        k(   77) = (  -0.5000000   0.5000000  -0.2500000), wk =   0.0019531
        k(   78) = (  -0.6250000   0.6250000  -0.3750000), wk =   0.0019531
        k(   79) = (  -0.7500000   0.7500000  -0.5000000), wk =   0.0019531
        k(   80) = (  -0.8750000   0.8750000  -0.6250000), wk =   0.0019531
        k(   81) = (   0.1250000   0.1250000   0.3750000), wk =   0.0019531
        k(   82) = (   0.0000000   0.2500000   0.2500000), wk =   0.0019531
        k(   83) = (  -0.1250000   0.3750000   0.1250000), wk =   0.0019531
        k(   84) = (  -0.2500000   0.5000000   0.0000000), wk =   0.0019531
        k(   85) = (  -0.3750000   0.6250000  -0.1250000), wk =   0.0019531
        k(   86) = (  -0.5000000   0.7500000  -0.2500000), wk =   0.0019531
        k(   87) = (  -0.6250000   0.8750000  -0.3750000), wk =   0.0019531
        k(   88) = (  -0.7500000   1.0000000  -0.5000000), wk =   0.0019531
        k(   89) = (   0.2500000   0.2500000   0.5000000), wk =   0.0019531
        k(   90) = (   0.1250000   0.3750000   0.3750000), wk =   0.0019531
        k(   91) = (   0.0000000   0.5000000   0.2500000), wk =   0.0019531
        k(   92) = (  -0.1250000   0.6250000   0.1250000), wk =   0.0019531
        k(   93) = (  -0.2500000   0.7500000   0.0000000), wk =   0.0019531
        k(   94) = (  -0.3750000   0.8750000  -0.1250000), wk =   0.0019531
        k(   95) = (  -0.5000000   1.0000000  -0.2500000), wk =   0.0019531
        k(   96) = (  -0.6250000   1.1250000  -0.3750000), wk =   0.0019531
        k(   97) = (   0.3750000   0.3750000   0.6250000), wk =   0.0019531
        k(   98) = (   0.2500000   0.5000000   0.5000000), wk =   0.0019531
        k(   99) = (   0.1250000   0.6250000   0.3750000), wk =   0.0019531
        k(  100) = (   0.0000000   0.7500000   0.2500000), wk =   0.0019531
        k(  101) = (  -0.1250000   0.8750000   0.1250000), wk =   0.0019531
        k(  102) = (  -0.2500000   1.0000000   0.0000000), wk =   0.0019531
        k(  103) = (  -0.3750000   1.1250000  -0.1250000), wk =   0.0019531
        k(  104) = (  -0.5000000   1.2500000  -0.2500000), wk =   0.0019531
        k(  105) = (   0.5000000   0.5000000   0.7500000), wk =   0.0019531
        k(  106) = (   0.3750000   0.6250000   0.6250000), wk =   0.0019531
        k(  107) = (   0.2500000   0.7500000   0.5000000), wk =   0.0019531
        k(  108) = (   0.1250000   0.8750000   0.3750000), wk =   0.0019531
        k(  109) = (   0.0000000   1.0000000   0.2500000), wk =   0.0019531
        k(  110) = (  -0.1250000   1.1250000   0.1250000), wk =   0.0019531
        k(  111) = (  -0.2500000   1.2500000   0.0000000), wk =   0.0019531
        k(  112) = (  -0.3750000   1.3750000  -0.1250000), wk =   0.0019531
        k(  113) = (   0.6250000   0.6250000   0.8750000), wk =   0.0019531
        k(  114) = (   0.5000000   0.7500000   0.7500000), wk =   0.0019531
        k(  115) = (   0.3750000   0.8750000   0.6250000), wk =   0.0019531
        k(  116) = (   0.2500000   1.0000000   0.5000000), wk =   0.0019531
        k(  117) = (   0.1250000   1.1250000   0.3750000), wk =   0.0019531
        k(  118) = (   0.0000000   1.2500000   0.2500000), wk =   0.0019531
        k(  119) = (  -0.1250000   1.3750000   0.1250000), wk =   0.0019531
        k(  120) = (  -0.2500000   1.5000000   0.0000000), wk =   0.0019531
        k(  121) = (   0.7500000   0.7500000   1.0000000), wk =   0.0019531
        k(  122) = (   0.6250000   0.8750000   0.8750000), wk =   0.0019531
        k(  123) = (   0.5000000   1.0000000   0.7500000), wk =   0.0019531
        k(  124) = (   0.3750000   1.1250000   0.6250000), wk =   0.0019531
        k(  125) = (   0.2500000   1.2500000   0.5000000), wk =   0.0019531
        k(  126) = (   0.1250000   1.3750000   0.3750000), wk =   0.0019531
        k(  127) = (   0.0000000   1.5000000   0.2500000), wk =   0.0019531
        k(  128) = (  -0.1250000   1.6250000   0.1250000), wk =   0.0019531
        k(  129) = (  -0.2500000  -0.2500000   0.2500000), wk =   0.0019531
        k(  130) = (  -0.3750000  -0.1250000   0.1250000), wk =   0.0019531
        k(  131) = (  -0.5000000   0.0000000   0.0000000), wk =   0.0019531
        k(  132) = (  -0.6250000   0.1250000  -0.1250000), wk =   0.0019531
        k(  133) = (  -0.7500000   0.2500000  -0.2500000), wk =   0.0019531
        k(  134) = (  -0.8750000   0.3750000  -0.3750000), wk =   0.0019531
        k(  135) = (  -1.0000000   0.5000000  -0.5000000), wk =   0.0019531
        k(  136) = (  -1.1250000   0.6250000  -0.6250000), wk =   0.0019531
        k(  137) = (  -0.1250000  -0.1250000   0.3750000), wk =   0.0019531
        k(  138) = (  -0.2500000   0.0000000   0.2500000), wk =   0.0019531
        k(  139) = (  -0.3750000   0.1250000   0.1250000), wk =   0.0019531
        k(  140) = (  -0.5000000   0.2500000   0.0000000), wk =   0.0019531
        k(  141) = (  -0.6250000   0.3750000  -0.1250000), wk =   0.0019531
        k(  142) = (  -0.7500000   0.5000000  -0.2500000), wk =   0.0019531
        k(  143) = (  -0.8750000   0.6250000  -0.3750000), wk =   0.0019531
        k(  144) = (  -1.0000000   0.7500000  -0.5000000), wk =   0.0019531
        k(  145) = (   0.0000000   0.0000000   0.5000000), wk =   0.0019531
        k(  146) = (  -0.1250000   0.1250000   0.3750000), wk =   0.0019531
        k(  147) = (  -0.2500000   0.2500000   0.2500000), wk =   0.0019531
        k(  148) = (  -0.3750000   0.3750000   0.1250000), wk =   0.0019531
        k(  149) = (  -0.5000000   0.5000000   0.0000000), wk =   0.0019531
        k(  150) = (  -0.6250000   0.6250000  -0.1250000), wk =   0.0019531
        k(  151) = (  -0.7500000   0.7500000  -0.2500000), wk =   0.0019531
        k(  152) = (  -0.8750000   0.8750000  -0.3750000), wk =   0.0019531
        k(  153) = (   0.1250000   0.1250000   0.6250000), wk =   0.0019531
        k(  154) = (   0.0000000   0.2500000   0.5000000), wk =   0.0019531
        k(  155) = (  -0.1250000   0.3750000   0.3750000), wk =   0.0019531
        k(  156) = (  -0.2500000   0.5000000   0.2500000), wk =   0.0019531
        k(  157) = (  -0.3750000   0.6250000   0.1250000), wk =   0.0019531
        k(  158) = (  -0.5000000   0.7500000   0.0000000), wk =   0.0019531
        k(  159) = (  -0.6250000   0.8750000  -0.1250000), wk =   0.0019531
        k(  160) = (  -0.7500000   1.0000000  -0.2500000), wk =   0.0019531
        k(  161) = (   0.2500000   0.2500000   0.7500000), wk =   0.0019531
        k(  162) = (   0.1250000   0.3750000   0.6250000), wk =   0.0019531
        k(  163) = (   0.0000000   0.5000000   0.5000000), wk =   0.0019531
        k(  164) = (  -0.1250000   0.6250000   0.3750000), wk =   0.0019531
        k(  165) = (  -0.2500000   0.7500000   0.2500000), wk =   0.0019531
        k(  166) = (  -0.3750000   0.8750000   0.1250000), wk =   0.0019531
        k(  167) = (  -0.5000000   1.0000000   0.0000000), wk =   0.0019531
        k(  168) = (  -0.6250000   1.1250000  -0.1250000), wk =   0.0019531
        k(  169) = (   0.3750000   0.3750000   0.8750000), wk =   0.0019531
        k(  170) = (   0.2500000   0.5000000   0.7500000), wk =   0.0019531
        k(  171) = (   0.1250000   0.6250000   0.6250000), wk =   0.0019531
        k(  172) = (   0.0000000   0.7500000   0.5000000), wk =   0.0019531
        k(  173) = (  -0.1250000   0.8750000   0.3750000), wk =   0.0019531
        k(  174) = (  -0.2500000   1.0000000   0.2500000), wk =   0.0019531
        k(  175) = (  -0.3750000   1.1250000   0.1250000), wk =   0.0019531
        k(  176) = (  -0.5000000   1.2500000   0.0000000), wk =   0.0019531
        k(  177) = (   0.5000000   0.5000000   1.0000000), wk =   0.0019531
        k(  178) = (   0.3750000   0.6250000   0.8750000), wk =   0.0019531
        k(  179) = (   0.2500000   0.7500000   0.7500000), wk =   0.0019531
        k(  180) = (   0.1250000   0.8750000   0.6250000), wk =   0.0019531
        k(  181) = (   0.0000000   1.0000000   0.5000000), wk =   0.0019531
        k(  182) = (  -0.1250000   1.1250000   0.3750000), wk =   0.0019531
        k(  183) = (  -0.2500000   1.2500000   0.2500000), wk =   0.0019531
        k(  184) = (  -0.3750000   1.3750000   0.1250000), wk =   0.0019531
        k(  185) = (   0.6250000   0.6250000   1.1250000), wk =   0.0019531
        k(  186) = (   0.5000000   0.7500000   1.0000000), wk =   0.0019531
        k(  187) = (   0.3750000   0.8750000   0.8750000), wk =   0.0019531
        k(  188) = (   0.2500000   1.0000000   0.7500000), wk =   0.0019531
        k(  189) = (   0.1250000   1.1250000   0.6250000), wk =   0.0019531
        k(  190) = (   0.0000000   1.2500000   0.5000000), wk =   0.0019531
        k(  191) = (  -0.1250000   1.3750000   0.3750000), wk =   0.0019531
        k(  192) = (  -0.2500000   1.5000000   0.2500000), wk =   0.0019531
        k(  193) = (  -0.3750000  -0.3750000   0.3750000), wk =   0.0019531
        k(  194) = (  -0.5000000  -0.2500000   0.2500000), wk =   0.0019531
        k(  195) = (  -0.6250000  -0.1250000   0.1250000), wk =   0.0019531
        k(  196) = (  -0.7500000   0.0000000   0.0000000), wk =   0.0019531
        k(  197) = (  -0.8750000   0.1250000  -0.1250000), wk =   0.0019531
        k(  198) = (  -1.0000000   0.2500000  -0.2500000), wk =   0.0019531
        k(  199) = (  -1.1250000   0.3750000  -0.3750000), wk =   0.0019531
        k(  200) = (  -1.2500000   0.5000000  -0.5000000), wk =   0.0019531
        k(  201) = (  -0.2500000  -0.2500000   0.5000000), wk =   0.0019531
        k(  202) = (  -0.3750000  -0.1250000   0.3750000), wk =   0.0019531
        k(  203) = (  -0.5000000   0.0000000   0.2500000), wk =   0.0019531
        k(  204) = (  -0.6250000   0.1250000   0.1250000), wk =   0.0019531
        k(  205) = (  -0.7500000   0.2500000   0.0000000), wk =   0.0019531
        k(  206) = (  -0.8750000   0.3750000  -0.1250000), wk =   0.0019531
        k(  207) = (  -1.0000000   0.5000000  -0.2500000), wk =   0.0019531
        k(  208) = (  -1.1250000   0.6250000  -0.3750000), wk =   0.0019531
        k(  209) = (  -0.1250000  -0.1250000   0.6250000), wk =   0.0019531
        k(  210) = (  -0.2500000   0.0000000   0.5000000), wk =   0.0019531
        k(  211) = (  -0.3750000   0.1250000   0.3750000), wk =   0.0019531
        k(  212) = (  -0.5000000   0.2500000   0.2500000), wk =   0.0019531
        k(  213) = (  -0.6250000   0.3750000   0.1250000), wk =   0.0019531
        k(  214) = (  -0.7500000   0.5000000   0.0000000), wk =   0.0019531
        k(  215) = (  -0.8750000   0.6250000  -0.1250000), wk =   0.0019531
        k(  216) = (  -1.0000000   0.7500000  -0.2500000), wk =   0.0019531
        k(  217) = (   0.0000000   0.0000000   0.7500000), wk =   0.0019531
        k(  218) = (  -0.1250000   0.1250000   0.6250000), wk =   0.0019531
        k(  219) = (  -0.2500000   0.2500000   0.5000000), wk =   0.0019531
        k(  220) = (  -0.3750000   0.3750000   0.3750000), wk =   0.0019531
        k(  221) = (  -0.5000000   0.5000000   0.2500000), wk =   0.0019531
        k(  222) = (  -0.6250000   0.6250000   0.1250000), wk =   0.0019531
        k(  223) = (  -0.7500000   0.7500000   0.0000000), wk =   0.0019531
        k(  224) = (  -0.8750000   0.8750000  -0.1250000), wk =   0.0019531
        k(  225) = (   0.1250000   0.1250000   0.8750000), wk =   0.0019531
        k(  226) = (   0.0000000   0.2500000   0.7500000), wk =   0.0019531
        k(  227) = (  -0.1250000   0.3750000   0.6250000), wk =   0.0019531
        k(  228) = (  -0.2500000   0.5000000   0.5000000), wk =   0.0019531
        k(  229) = (  -0.3750000   0.6250000   0.3750000), wk =   0.0019531
        k(  230) = (  -0.5000000   0.7500000   0.2500000), wk =   0.0019531
        k(  231) = (  -0.6250000   0.8750000   0.1250000), wk =   0.0019531
        k(  232) = (  -0.7500000   1.0000000   0.0000000), wk =   0.0019531
        k(  233) = (   0.2500000   0.2500000   1.0000000), wk =   0.0019531
        k(  234) = (   0.1250000   0.3750000   0.8750000), wk =   0.0019531
        k(  235) = (   0.0000000   0.5000000   0.7500000), wk =   0.0019531
        k(  236) = (  -0.1250000   0.6250000   0.6250000), wk =   0.0019531
        k(  237) = (  -0.2500000   0.7500000   0.5000000), wk =   0.0019531
        k(  238) = (  -0.3750000   0.8750000   0.3750000), wk =   0.0019531
        k(  239) = (  -0.5000000   1.0000000   0.2500000), wk =   0.0019531
        k(  240) = (  -0.6250000   1.1250000   0.1250000), wk =   0.0019531
        k(  241) = (   0.3750000   0.3750000   1.1250000), wk =   0.0019531
        k(  242) = (   0.2500000   0.5000000   1.0000000), wk =   0.0019531
        k(  243) = (   0.1250000   0.6250000   0.8750000), wk =   0.0019531
        k(  244) = (   0.0000000   0.7500000   0.7500000), wk =   0.0019531
        k(  245) = (  -0.1250000   0.8750000   0.6250000), wk =   0.0019531
        k(  246) = (  -0.2500000   1.0000000   0.5000000), wk =   0.0019531
        k(  247) = (  -0.3750000   1.1250000   0.3750000), wk =   0.0019531
        k(  248) = (  -0.5000000   1.2500000   0.2500000), wk =   0.0019531
        k(  249) = (   0.5000000   0.5000000   1.2500000), wk =   0.0019531
        k(  250) = (   0.3750000   0.6250000   1.1250000), wk =   0.0019531
        k(  251) = (   0.2500000   0.7500000   1.0000000), wk =   0.0019531
        k(  252) = (   0.1250000   0.8750000   0.8750000), wk =   0.0019531
        k(  253) = (   0.0000000   1.0000000   0.7500000), wk =   0.0019531
        k(  254) = (  -0.1250000   1.1250000   0.6250000), wk =   0.0019531
        k(  255) = (  -0.2500000   1.2500000   0.5000000), wk =   0.0019531
        k(  256) = (  -0.3750000   1.3750000   0.3750000), wk =   0.0019531
        k(  257) = (  -0.5000000  -0.5000000   0.5000000), wk =   0.0019531
        k(  258) = (  -0.6250000  -0.3750000   0.3750000), wk =   0.0019531
        k(  259) = (  -0.7500000  -0.2500000   0.2500000), wk =   0.0019531
        k(  260) = (  -0.8750000  -0.1250000   0.1250000), wk =   0.0019531
        k(  261) = (  -1.0000000   0.0000000   0.0000000), wk =   0.0019531
        k(  262) = (  -1.1250000   0.1250000  -0.1250000), wk =   0.0019531
        k(  263) = (  -1.2500000   0.2500000  -0.2500000), wk =   0.0019531
        k(  264) = (  -1.3750000   0.3750000  -0.3750000), wk =   0.0019531
        k(  265) = (  -0.3750000  -0.3750000   0.6250000), wk =   0.0019531
        k(  266) = (  -0.5000000  -0.2500000   0.5000000), wk =   0.0019531
        k(  267) = (  -0.6250000  -0.1250000   0.3750000), wk =   0.0019531
        k(  268) = (  -0.7500000   0.0000000   0.2500000), wk =   0.0019531
        k(  269) = (  -0.8750000   0.1250000   0.1250000), wk =   0.0019531
        k(  270) = (  -1.0000000   0.2500000   0.0000000), wk =   0.0019531
        k(  271) = (  -1.1250000   0.3750000  -0.1250000), wk =   0.0019531
        k(  272) = (  -1.2500000   0.5000000  -0.2500000), wk =   0.0019531
        k(  273) = (  -0.2500000  -0.2500000   0.7500000), wk =   0.0019531
        k(  274) = (  -0.3750000  -0.1250000   0.6250000), wk =   0.0019531
        k(  275) = (  -0.5000000   0.0000000   0.5000000), wk =   0.0019531
        k(  276) = (  -0.6250000   0.1250000   0.3750000), wk =   0.0019531
        k(  277) = (  -0.7500000   0.2500000   0.2500000), wk =   0.0019531
        k(  278) = (  -0.8750000   0.3750000   0.1250000), wk =   0.0019531
        k(  279) = (  -1.0000000   0.5000000   0.0000000), wk =   0.0019531
        k(  280) = (  -1.1250000   0.6250000  -0.1250000), wk =   0.0019531
        k(  281) = (  -0.1250000  -0.1250000   0.8750000), wk =   0.0019531
        k(  282) = (  -0.2500000   0.0000000   0.7500000), wk =   0.0019531
        k(  283) = (  -0.3750000   0.1250000   0.6250000), wk =   0.0019531
        k(  284) = (  -0.5000000   0.2500000   0.5000000), wk =   0.0019531
        k(  285) = (  -0.6250000   0.3750000   0.3750000), wk =   0.0019531
        k(  286) = (  -0.7500000   0.5000000   0.2500000), wk =   0.0019531
        k(  287) = (  -0.8750000   0.6250000   0.1250000), wk =   0.0019531
        k(  288) = (  -1.0000000   0.7500000   0.0000000), wk =   0.0019531
        k(  289) = (   0.0000000   0.0000000   1.0000000), wk =   0.0019531
        k(  290) = (  -0.1250000   0.1250000   0.8750000), wk =   0.0019531
        k(  291) = (  -0.2500000   0.2500000   0.7500000), wk =   0.0019531
        k(  292) = (  -0.3750000   0.3750000   0.6250000), wk =   0.0019531
        k(  293) = (  -0.5000000   0.5000000   0.5000000), wk =   0.0019531
        k(  294) = (  -0.6250000   0.6250000   0.3750000), wk =   0.0019531
        k(  295) = (  -0.7500000   0.7500000   0.2500000), wk =   0.0019531
        k(  296) = (  -0.8750000   0.8750000   0.1250000), wk =   0.0019531
        k(  297) = (   0.1250000   0.1250000   1.1250000), wk =   0.0019531
        k(  298) = (   0.0000000   0.2500000   1.0000000), wk =   0.0019531
        k(  299) = (  -0.1250000   0.3750000   0.8750000), wk =   0.0019531
        k(  300) = (  -0.2500000   0.5000000   0.7500000), wk =   0.0019531
        k(  301) = (  -0.3750000   0.6250000   0.6250000), wk =   0.0019531
        k(  302) = (  -0.5000000   0.7500000   0.5000000), wk =   0.0019531
        k(  303) = (  -0.6250000   0.8750000   0.3750000), wk =   0.0019531
        k(  304) = (  -0.7500000   1.0000000   0.2500000), wk =   0.0019531
        k(  305) = (   0.2500000   0.2500000   1.2500000), wk =   0.0019531
        k(  306) = (   0.1250000   0.3750000   1.1250000), wk =   0.0019531
        k(  307) = (   0.0000000   0.5000000   1.0000000), wk =   0.0019531
        k(  308) = (  -0.1250000   0.6250000   0.8750000), wk =   0.0019531
        k(  309) = (  -0.2500000   0.7500000   0.7500000), wk =   0.0019531
        k(  310) = (  -0.3750000   0.8750000   0.6250000), wk =   0.0019531
        k(  311) = (  -0.5000000   1.0000000   0.5000000), wk =   0.0019531
        k(  312) = (  -0.6250000   1.1250000   0.3750000), wk =   0.0019531
        k(  313) = (   0.3750000   0.3750000   1.3750000), wk =   0.0019531
        k(  314) = (   0.2500000   0.5000000   1.2500000), wk =   0.0019531
        k(  315) = (   0.1250000   0.6250000   1.1250000), wk =   0.0019531
        k(  316) = (   0.0000000   0.7500000   1.0000000), wk =   0.0019531
        k(  317) = (  -0.1250000   0.8750000   0.8750000), wk =   0.0019531
        k(  318) = (  -0.2500000   1.0000000   0.7500000), wk =   0.0019531
        k(  319) = (  -0.3750000   1.1250000   0.6250000), wk =   0.0019531
        k(  320) = (  -0.5000000   1.2500000   0.5000000), wk =   0.0019531
        k(  321) = (  -0.6250000  -0.6250000   0.6250000), wk =   0.0019531
        k(  322) = (  -0.7500000  -0.5000000   0.5000000), wk =   0.0019531
        k(  323) = (  -0.8750000  -0.3750000   0.3750000), wk =   0.0019531
        k(  324) = (  -1.0000000  -0.2500000   0.2500000), wk =   0.0019531
        k(  325) = (  -1.1250000  -0.1250000   0.1250000), wk =   0.0019531
        k(  326) = (  -1.2500000   0.0000000   0.0000000), wk =   0.0019531
        k(  327) = (  -1.3750000   0.1250000  -0.1250000), wk =   0.0019531
        k(  328) = (  -1.5000000   0.2500000  -0.2500000), wk =   0.0019531
        k(  329) = (  -0.5000000  -0.5000000   0.7500000), wk =   0.0019531
        k(  330) = (  -0.6250000  -0.3750000   0.6250000), wk =   0.0019531
        k(  331) = (  -0.7500000  -0.2500000   0.5000000), wk =   0.0019531
        k(  332) = (  -0.8750000  -0.1250000   0.3750000), wk =   0.0019531
        k(  333) = (  -1.0000000   0.0000000   0.2500000), wk =   0.0019531
        k(  334) = (  -1.1250000   0.1250000   0.1250000), wk =   0.0019531
        k(  335) = (  -1.2500000   0.2500000   0.0000000), wk =   0.0019531
        k(  336) = (  -1.3750000   0.3750000  -0.1250000), wk =   0.0019531
        k(  337) = (  -0.3750000  -0.3750000   0.8750000), wk =   0.0019531
        k(  338) = (  -0.5000000  -0.2500000   0.7500000), wk =   0.0019531
        k(  339) = (  -0.6250000  -0.1250000   0.6250000), wk =   0.0019531
        k(  340) = (  -0.7500000   0.0000000   0.5000000), wk =   0.0019531
        k(  341) = (  -0.8750000   0.1250000   0.3750000), wk =   0.0019531
        k(  342) = (  -1.0000000   0.2500000   0.2500000), wk =   0.0019531
        k(  343) = (  -1.1250000   0.3750000   0.1250000), wk =   0.0019531
        k(  344) = (  -1.2500000   0.5000000   0.0000000), wk =   0.0019531
        k(  345) = (  -0.2500000  -0.2500000   1.0000000), wk =   0.0019531
        k(  346) = (  -0.3750000  -0.1250000   0.8750000), wk =   0.0019531
        k(  347) = (  -0.5000000   0.0000000   0.7500000), wk =   0.0019531
        k(  348) = (  -0.6250000   0.1250000   0.6250000), wk =   0.0019531
        k(  349) = (  -0.7500000   0.2500000   0.5000000), wk =   0.0019531
        k(  350) = (  -0.8750000   0.3750000   0.3750000), wk =   0.0019531
        k(  351) = (  -1.0000000   0.5000000   0.2500000), wk =   0.0019531
        k(  352) = (  -1.1250000   0.6250000   0.1250000), wk =   0.0019531
        k(  353) = (  -0.1250000  -0.1250000   1.1250000), wk =   0.0019531
        k(  354) = (  -0.2500000   0.0000000   1.0000000), wk =   0.0019531
        k(  355) = (  -0.3750000   0.1250000   0.8750000), wk =   0.0019531
        k(  356) = (  -0.5000000   0.2500000   0.7500000), wk =   0.0019531
        k(  357) = (  -0.6250000   0.3750000   0.6250000), wk =   0.0019531
        k(  358) = (  -0.7500000   0.5000000   0.5000000), wk =   0.0019531
        k(  359) = (  -0.8750000   0.6250000   0.3750000), wk =   0.0019531
        k(  360) = (  -1.0000000   0.7500000   0.2500000), wk =   0.0019531
        k(  361) = (   0.0000000   0.0000000   1.2500000), wk =   0.0019531
        k(  362) = (  -0.1250000   0.1250000   1.1250000), wk =   0.0019531
        k(  363) = (  -0.2500000   0.2500000   1.0000000), wk =   0.0019531
        k(  364) = (  -0.3750000   0.3750000   0.8750000), wk =   0.0019531
        k(  365) = (  -0.5000000   0.5000000   0.7500000), wk =   0.0019531
        k(  366) = (  -0.6250000   0.6250000   0.6250000), wk =   0.0019531
        k(  367) = (  -0.7500000   0.7500000   0.5000000), wk =   0.0019531
        k(  368) = (  -0.8750000   0.8750000   0.3750000), wk =   0.0019531
        k(  369) = (   0.1250000   0.1250000   1.3750000), wk =   0.0019531
        k(  370) = (   0.0000000   0.2500000   1.2500000), wk =   0.0019531
        k(  371) = (  -0.1250000   0.3750000   1.1250000), wk =   0.0019531
        k(  372) = (  -0.2500000   0.5000000   1.0000000), wk =   0.0019531
        k(  373) = (  -0.3750000   0.6250000   0.8750000), wk =   0.0019531
        k(  374) = (  -0.5000000   0.7500000   0.7500000), wk =   0.0019531
        k(  375) = (  -0.6250000   0.8750000   0.6250000), wk =   0.0019531
        k(  376) = (  -0.7500000   1.0000000   0.5000000), wk =   0.0019531
        k(  377) = (   0.2500000   0.2500000   1.5000000), wk =   0.0019531
        k(  378) = (   0.1250000   0.3750000   1.3750000), wk =   0.0019531
        k(  379) = (   0.0000000   0.5000000   1.2500000), wk =   0.0019531
        k(  380) = (  -0.1250000   0.6250000   1.1250000), wk =   0.0019531
        k(  381) = (  -0.2500000   0.7500000   1.0000000), wk =   0.0019531
        k(  382) = (  -0.3750000   0.8750000   0.8750000), wk =   0.0019531
        k(  383) = (  -0.5000000   1.0000000   0.7500000), wk =   0.0019531
        k(  384) = (  -0.6250000   1.1250000   0.6250000), wk =   0.0019531
        k(  385) = (  -0.7500000  -0.7500000   0.7500000), wk =   0.0019531
        k(  386) = (  -0.8750000  -0.6250000   0.6250000), wk =   0.0019531
        k(  387) = (  -1.0000000  -0.5000000   0.5000000), wk =   0.0019531
        k(  388) = (  -1.1250000  -0.3750000   0.3750000), wk =   0.0019531
        k(  389) = (  -1.2500000  -0.2500000   0.2500000), wk =   0.0019531
        k(  390) = (  -1.3750000  -0.1250000   0.1250000), wk =   0.0019531
        k(  391) = (  -1.5000000   0.0000000   0.0000000), wk =   0.0019531
        k(  392) = (  -1.6250000   0.1250000  -0.1250000), wk =   0.0019531
        k(  393) = (  -0.6250000  -0.6250000   0.8750000), wk =   0.0019531
        k(  394) = (  -0.7500000  -0.5000000   0.7500000), wk =   0.0019531
        k(  395) = (  -0.8750000  -0.3750000   0.6250000), wk =   0.0019531
        k(  396) = (  -1.0000000  -0.2500000   0.5000000), wk =   0.0019531
        k(  397) = (  -1.1250000  -0.1250000   0.3750000), wk =   0.0019531
        k(  398) = (  -1.2500000   0.0000000   0.2500000), wk =   0.0019531
        k(  399) = (  -1.3750000   0.1250000   0.1250000), wk =   0.0019531
        k(  400) = (  -1.5000000   0.2500000   0.0000000), wk =   0.0019531
        k(  401) = (  -0.5000000  -0.5000000   1.0000000), wk =   0.0019531
        k(  402) = (  -0.6250000  -0.3750000   0.8750000), wk =   0.0019531
        k(  403) = (  -0.7500000  -0.2500000   0.7500000), wk =   0.0019531
        k(  404) = (  -0.8750000  -0.1250000   0.6250000), wk =   0.0019531
        k(  405) = (  -1.0000000   0.0000000   0.5000000), wk =   0.0019531
        k(  406) = (  -1.1250000   0.1250000   0.3750000), wk =   0.0019531
        k(  407) = (  -1.2500000   0.2500000   0.2500000), wk =   0.0019531
        k(  408) = (  -1.3750000   0.3750000   0.1250000), wk =   0.0019531
        k(  409) = (  -0.3750000  -0.3750000   1.1250000), wk =   0.0019531
        k(  410) = (  -0.5000000  -0.2500000   1.0000000), wk =   0.0019531
        k(  411) = (  -0.6250000  -0.1250000   0.8750000), wk =   0.0019531
        k(  412) = (  -0.7500000   0.0000000   0.7500000), wk =   0.0019531
        k(  413) = (  -0.8750000   0.1250000   0.6250000), wk =   0.0019531
        k(  414) = (  -1.0000000   0.2500000   0.5000000), wk =   0.0019531
        k(  415) = (  -1.1250000   0.3750000   0.3750000), wk =   0.0019531
        k(  416) = (  -1.2500000   0.5000000   0.2500000), wk =   0.0019531
        k(  417) = (  -0.2500000  -0.2500000   1.2500000), wk =   0.0019531
        k(  418) = (  -0.3750000  -0.1250000   1.1250000), wk =   0.0019531
        k(  419) = (  -0.5000000   0.0000000   1.0000000), wk =   0.0019531
        k(  420) = (  -0.6250000   0.1250000   0.8750000), wk =   0.0019531
        k(  421) = (  -0.7500000   0.2500000   0.7500000), wk =   0.0019531
        k(  422) = (  -0.8750000   0.3750000   0.6250000), wk =   0.0019531
        k(  423) = (  -1.0000000   0.5000000   0.5000000), wk =   0.0019531
        k(  424) = (  -1.1250000   0.6250000   0.3750000), wk =   0.0019531
        k(  425) = (  -0.1250000  -0.1250000   1.3750000), wk =   0.0019531
        k(  426) = (  -0.2500000   0.0000000   1.2500000), wk =   0.0019531
        k(  427) = (  -0.3750000   0.1250000   1.1250000), wk =   0.0019531
        k(  428) = (  -0.5000000   0.2500000   1.0000000), wk =   0.0019531
        k(  429) = (  -0.6250000   0.3750000   0.8750000), wk =   0.0019531
        k(  430) = (  -0.7500000   0.5000000   0.7500000), wk =   0.0019531
        k(  431) = (  -0.8750000   0.6250000   0.6250000), wk =   0.0019531
        k(  432) = (  -1.0000000   0.7500000   0.5000000), wk =   0.0019531
        k(  433) = (   0.0000000   0.0000000   1.5000000), wk =   0.0019531
        k(  434) = (  -0.1250000   0.1250000   1.3750000), wk =   0.0019531
        k(  435) = (  -0.2500000   0.2500000   1.2500000), wk =   0.0019531
        k(  436) = (  -0.3750000   0.3750000   1.1250000), wk =   0.0019531
        k(  437) = (  -0.5000000   0.5000000   1.0000000), wk =   0.0019531
        k(  438) = (  -0.6250000   0.6250000   0.8750000), wk =   0.0019531
        k(  439) = (  -0.7500000   0.7500000   0.7500000), wk =   0.0019531
        k(  440) = (  -0.8750000   0.8750000   0.6250000), wk =   0.0019531
        k(  441) = (   0.1250000   0.1250000   1.6250000), wk =   0.0019531
        k(  442) = (   0.0000000   0.2500000   1.5000000), wk =   0.0019531
        k(  443) = (  -0.1250000   0.3750000   1.3750000), wk =   0.0019531
        k(  444) = (  -0.2500000   0.5000000   1.2500000), wk =   0.0019531
        k(  445) = (  -0.3750000   0.6250000   1.1250000), wk =   0.0019531
        k(  446) = (  -0.5000000   0.7500000   1.0000000), wk =   0.0019531
        k(  447) = (  -0.6250000   0.8750000   0.8750000), wk =   0.0019531
        k(  448) = (  -0.7500000   1.0000000   0.7500000), wk =   0.0019531
        k(  449) = (  -0.8750000  -0.8750000   0.8750000), wk =   0.0019531
        k(  450) = (  -1.0000000  -0.7500000   0.7500000), wk =   0.0019531
        k(  451) = (  -1.1250000  -0.6250000   0.6250000), wk =   0.0019531
        k(  452) = (  -1.2500000  -0.5000000   0.5000000), wk =   0.0019531
        k(  453) = (  -1.3750000  -0.3750000   0.3750000), wk =   0.0019531
        k(  454) = (  -1.5000000  -0.2500000   0.2500000), wk =   0.0019531
        k(  455) = (  -1.6250000  -0.1250000   0.1250000), wk =   0.0019531
        k(  456) = (  -1.7500000   0.0000000   0.0000000), wk =   0.0019531
        k(  457) = (  -0.7500000  -0.7500000   1.0000000), wk =   0.0019531
        k(  458) = (  -0.8750000  -0.6250000   0.8750000), wk =   0.0019531
        k(  459) = (  -1.0000000  -0.5000000   0.7500000), wk =   0.0019531
        k(  460) = (  -1.1250000  -0.3750000   0.6250000), wk =   0.0019531
        k(  461) = (  -1.2500000  -0.2500000   0.5000000), wk =   0.0019531
        k(  462) = (  -1.3750000  -0.1250000   0.3750000), wk =   0.0019531
        k(  463) = (  -1.5000000   0.0000000   0.2500000), wk =   0.0019531
        k(  464) = (  -1.6250000   0.1250000   0.1250000), wk =   0.0019531
        k(  465) = (  -0.6250000  -0.6250000   1.1250000), wk =   0.0019531
        k(  466) = (  -0.7500000  -0.5000000   1.0000000), wk =   0.0019531
        k(  467) = (  -0.8750000  -0.3750000   0.8750000), wk =   0.0019531
        k(  468) = (  -1.0000000  -0.2500000   0.7500000), wk =   0.0019531
        k(  469) = (  -1.1250000  -0.1250000   0.6250000), wk =   0.0019531
        k(  470) = (  -1.2500000   0.0000000   0.5000000), wk =   0.0019531
        k(  471) = (  -1.3750000   0.1250000   0.3750000), wk =   0.0019531
        k(  472) = (  -1.5000000   0.2500000   0.2500000), wk =   0.0019531
        k(  473) = (  -0.5000000  -0.5000000   1.2500000), wk =   0.0019531
        k(  474) = (  -0.6250000  -0.3750000   1.1250000), wk =   0.0019531
        k(  475) = (  -0.7500000  -0.2500000   1.0000000), wk =   0.0019531
        k(  476) = (  -0.8750000  -0.1250000   0.8750000), wk =   0.0019531
        k(  477) = (  -1.0000000   0.0000000   0.7500000), wk =   0.0019531
        k(  478) = (  -1.1250000   0.1250000   0.6250000), wk =   0.0019531
        k(  479) = (  -1.2500000   0.2500000   0.5000000), wk =   0.0019531
        k(  480) = (  -1.3750000   0.3750000   0.3750000), wk =   0.0019531
        k(  481) = (  -0.3750000  -0.3750000   1.3750000), wk =   0.0019531
        k(  482) = (  -0.5000000  -0.2500000   1.2500000), wk =   0.0019531
        k(  483) = (  -0.6250000  -0.1250000   1.1250000), wk =   0.0019531
        k(  484) = (  -0.7500000   0.0000000   1.0000000), wk =   0.0019531
        k(  485) = (  -0.8750000   0.1250000   0.8750000), wk =   0.0019531
        k(  486) = (  -1.0000000   0.2500000   0.7500000), wk =   0.0019531
        k(  487) = (  -1.1250000   0.3750000   0.6250000), wk =   0.0019531
        k(  488) = (  -1.2500000   0.5000000   0.5000000), wk =   0.0019531
        k(  489) = (  -0.2500000  -0.2500000   1.5000000), wk =   0.0019531
        k(  490) = (  -0.3750000  -0.1250000   1.3750000), wk =   0.0019531
        k(  491) = (  -0.5000000   0.0000000   1.2500000), wk =   0.0019531
        k(  492) = (  -0.6250000   0.1250000   1.1250000), wk =   0.0019531
        k(  493) = (  -0.7500000   0.2500000   1.0000000), wk =   0.0019531
        k(  494) = (  -0.8750000   0.3750000   0.8750000), wk =   0.0019531
        k(  495) = (  -1.0000000   0.5000000   0.7500000), wk =   0.0019531
        k(  496) = (  -1.1250000   0.6250000   0.6250000), wk =   0.0019531
        k(  497) = (  -0.1250000  -0.1250000   1.6250000), wk =   0.0019531
        k(  498) = (  -0.2500000   0.0000000   1.5000000), wk =   0.0019531
        k(  499) = (  -0.3750000   0.1250000   1.3750000), wk =   0.0019531
        k(  500) = (  -0.5000000   0.2500000   1.2500000), wk =   0.0019531
        k(  501) = (  -0.6250000   0.3750000   1.1250000), wk =   0.0019531
        k(  502) = (  -0.7500000   0.5000000   1.0000000), wk =   0.0019531
        k(  503) = (  -0.8750000   0.6250000   0.8750000), wk =   0.0019531
        k(  504) = (  -1.0000000   0.7500000   0.7500000), wk =   0.0019531
        k(  505) = (   0.0000000   0.0000000   1.7500000), wk =   0.0019531
        k(  506) = (  -0.1250000   0.1250000   1.6250000), wk =   0.0019531
        k(  507) = (  -0.2500000   0.2500000   1.5000000), wk =   0.0019531
        k(  508) = (  -0.3750000   0.3750000   1.3750000), wk =   0.0019531
        k(  509) = (  -0.5000000   0.5000000   1.2500000), wk =   0.0019531
        k(  510) = (  -0.6250000   0.6250000   1.1250000), wk =   0.0019531
        k(  511) = (  -0.7500000   0.7500000   1.0000000), wk =   0.0019531
        k(  512) = (  -0.8750000   0.8750000   0.8750000), wk =   0.0019531

                       cryst. coord.
        k(    1) = (   0.0000000   0.0000000   0.0000000), wk =   0.0019531
        k(    2) = (   0.0000000   0.0000000   0.1250000), wk =   0.0019531
        k(    3) = (   0.0000000   0.0000000   0.2500000), wk =   0.0019531
        k(    4) = (   0.0000000   0.0000000   0.3750000), wk =   0.0019531
        k(    5) = (   0.0000000   0.0000000   0.5000000), wk =   0.0019531
        k(    6) = (   0.0000000   0.0000000   0.6250000), wk =   0.0019531
        k(    7) = (   0.0000000   0.0000000   0.7500000), wk =   0.0019531
        k(    8) = (   0.0000000   0.0000000   0.8750000), wk =   0.0019531
        k(    9) = (   0.0000000   0.1250000   0.0000000), wk =   0.0019531
        k(   10) = (   0.0000000   0.1250000   0.1250000), wk =   0.0019531
        k(   11) = (   0.0000000   0.1250000   0.2500000), wk =   0.0019531
        k(   12) = (   0.0000000   0.1250000   0.3750000), wk =   0.0019531
        k(   13) = (   0.0000000   0.1250000   0.5000000), wk =   0.0019531
        k(   14) = (   0.0000000   0.1250000   0.6250000), wk =   0.0019531
        k(   15) = (   0.0000000   0.1250000   0.7500000), wk =   0.0019531
        k(   16) = (   0.0000000   0.1250000   0.8750000), wk =   0.0019531
        k(   17) = (   0.0000000   0.2500000   0.0000000), wk =   0.0019531
        k(   18) = (   0.0000000   0.2500000   0.1250000), wk =   0.0019531
        k(   19) = (   0.0000000   0.2500000   0.2500000), wk =   0.0019531
        k(   20) = (   0.0000000   0.2500000   0.3750000), wk =   0.0019531
        k(   21) = (   0.0000000   0.2500000   0.5000000), wk =   0.0019531
        k(   22) = (   0.0000000   0.2500000   0.6250000), wk =   0.0019531
        k(   23) = (   0.0000000   0.2500000   0.7500000), wk =   0.0019531
        k(   24) = (   0.0000000   0.2500000   0.8750000), wk =   0.0019531
        k(   25) = (   0.0000000   0.3750000   0.0000000), wk =   0.0019531
        k(   26) = (   0.0000000   0.3750000   0.1250000), wk =   0.0019531
        k(   27) = (   0.0000000   0.3750000   0.2500000), wk =   0.0019531
        k(   28) = (   0.0000000   0.3750000   0.3750000), wk =   0.0019531
        k(   29) = (   0.0000000   0.3750000   0.5000000), wk =   0.0019531
        k(   30) = (   0.0000000   0.3750000   0.6250000), wk =   0.0019531
        k(   31) = (   0.0000000   0.3750000   0.7500000), wk =   0.0019531
        k(   32) = (   0.0000000   0.3750000   0.8750000), wk =   0.0019531
        k(   33) = (   0.0000000   0.5000000   0.0000000), wk =   0.0019531
        k(   34) = (   0.0000000   0.5000000   0.1250000), wk =   0.0019531
        k(   35) = (   0.0000000   0.5000000   0.2500000), wk =   0.0019531
        k(   36) = (   0.0000000   0.5000000   0.3750000), wk =   0.0019531
        k(   37) = (   0.0000000   0.5000000   0.5000000), wk =   0.0019531
        k(   38) = (   0.0000000   0.5000000   0.6250000), wk =   0.0019531
        k(   39) = (   0.0000000   0.5000000   0.7500000), wk =   0.0019531
        k(   40) = (   0.0000000   0.5000000   0.8750000), wk =   0.0019531
        k(   41) = (   0.0000000   0.6250000   0.0000000), wk =   0.0019531
        k(   42) = (   0.0000000   0.6250000   0.1250000), wk =   0.0019531
        k(   43) = (   0.0000000   0.6250000   0.2500000), wk =   0.0019531
        k(   44) = (   0.0000000   0.6250000   0.3750000), wk =   0.0019531
        k(   45) = (   0.0000000   0.6250000   0.5000000), wk =   0.0019531
        k(   46) = (   0.0000000   0.6250000   0.6250000), wk =   0.0019531
        k(   47) = (   0.0000000   0.6250000   0.7500000), wk =   0.0019531
        k(   48) = (   0.0000000   0.6250000   0.8750000), wk =   0.0019531
        k(   49) = (   0.0000000   0.7500000   0.0000000), wk =   0.0019531
        k(   50) = (   0.0000000   0.7500000   0.1250000), wk =   0.0019531
        k(   51) = (   0.0000000   0.7500000   0.2500000), wk =   0.0019531
        k(   52) = (   0.0000000   0.7500000   0.3750000), wk =   0.0019531
        k(   53) = (   0.0000000   0.7500000   0.5000000), wk =   0.0019531
        k(   54) = (   0.0000000   0.7500000   0.6250000), wk =   0.0019531
        k(   55) = (   0.0000000   0.7500000   0.7500000), wk =   0.0019531
        k(   56) = (   0.0000000   0.7500000   0.8750000), wk =   0.0019531
        k(   57) = (   0.0000000   0.8750000   0.0000000), wk =   0.0019531
        k(   58) = (   0.0000000   0.8750000   0.1250000), wk =   0.0019531
        k(   59) = (   0.0000000   0.8750000   0.2500000), wk =   0.0019531
        k(   60) = (   0.0000000   0.8750000   0.3750000), wk =   0.0019531
        k(   61) = (   0.0000000   0.8750000   0.5000000), wk =   0.0019531
        k(   62) = (   0.0000000   0.8750000   0.6250000), wk =   0.0019531
        k(   63) = (   0.0000000   0.8750000   0.7500000), wk =   0.0019531
        k(   64) = (   0.0000000   0.8750000   0.8750000), wk =   0.0019531
        k(   65) = (   0.1250000   0.0000000   0.0000000), wk =   0.0019531
        k(   66) = (   0.1250000   0.0000000   0.1250000), wk =   0.0019531
        k(   67) = (   0.1250000   0.0000000   0.2500000), wk =   0.0019531
        k(   68) = (   0.1250000   0.0000000   0.3750000), wk =   0.0019531
        k(   69) = (   0.1250000   0.0000000   0.5000000), wk =   0.0019531
        k(   70) = (   0.1250000   0.0000000   0.6250000), wk =   0.0019531
        k(   71) = (   0.1250000   0.0000000   0.7500000), wk =   0.0019531
        k(   72) = (   0.1250000   0.0000000   0.8750000), wk =   0.0019531
        k(   73) = (   0.1250000   0.1250000   0.0000000), wk =   0.0019531
        k(   74) = (   0.1250000   0.1250000   0.1250000), wk =   0.0019531
        k(   75) = (   0.1250000   0.1250000   0.2500000), wk =   0.0019531
        k(   76) = (   0.1250000   0.1250000   0.3750000), wk =   0.0019531
        k(   77) = (   0.1250000   0.1250000   0.5000000), wk =   0.0019531
        k(   78) = (   0.1250000   0.1250000   0.6250000), wk =   0.0019531
        k(   79) = (   0.1250000   0.1250000   0.7500000), wk =   0.0019531
        k(   80) = (   0.1250000   0.1250000   0.8750000), wk =   0.0019531
        k(   81) = (   0.1250000   0.2500000   0.0000000), wk =   0.0019531
        k(   82) = (   0.1250000   0.2500000   0.1250000), wk =   0.0019531
        k(   83) = (   0.1250000   0.2500000   0.2500000), wk =   0.0019531
        k(   84) = (   0.1250000   0.2500000   0.3750000), wk =   0.0019531
        k(   85) = (   0.1250000   0.2500000   0.5000000), wk =   0.0019531
        k(   86) = (   0.1250000   0.2500000   0.6250000), wk =   0.0019531
        k(   87) = (   0.1250000   0.2500000   0.7500000), wk =   0.0019531
        k(   88) = (   0.1250000   0.2500000   0.8750000), wk =   0.0019531
        k(   89) = (   0.1250000   0.3750000   0.0000000), wk =   0.0019531
        k(   90) = (   0.1250000   0.3750000   0.1250000), wk =   0.0019531
        k(   91) = (   0.1250000   0.3750000   0.2500000), wk =   0.0019531
        k(   92) = (   0.1250000   0.3750000   0.3750000), wk =   0.0019531
        k(   93) = (   0.1250000   0.3750000   0.5000000), wk =   0.0019531
        k(   94) = (   0.1250000   0.3750000   0.6250000), wk =   0.0019531
        k(   95) = (   0.1250000   0.3750000   0.7500000), wk =   0.0019531
        k(   96) = (   0.1250000   0.3750000   0.8750000), wk =   0.0019531
        k(   97) = (   0.1250000   0.5000000   0.0000000), wk =   0.0019531
        k(   98) = (   0.1250000   0.5000000   0.1250000), wk =   0.0019531
        k(   99) = (   0.1250000   0.5000000   0.2500000), wk =   0.0019531
        k(  100) = (   0.1250000   0.5000000   0.3750000), wk =   0.0019531
        k(  101) = (   0.1250000   0.5000000   0.5000000), wk =   0.0019531
        k(  102) = (   0.1250000   0.5000000   0.6250000), wk =   0.0019531
        k(  103) = (   0.1250000   0.5000000   0.7500000), wk =   0.0019531
        k(  104) = (   0.1250000   0.5000000   0.8750000), wk =   0.0019531
        k(  105) = (   0.1250000   0.6250000   0.0000000), wk =   0.0019531
        k(  106) = (   0.1250000   0.6250000   0.1250000), wk =   0.0019531
        k(  107) = (   0.1250000   0.6250000   0.2500000), wk =   0.0019531
        k(  108) = (   0.1250000   0.6250000   0.3750000), wk =   0.0019531
        k(  109) = (   0.1250000   0.6250000   0.5000000), wk =   0.0019531
        k(  110) = (   0.1250000   0.6250000   0.6250000), wk =   0.0019531
        k(  111) = (   0.1250000   0.6250000   0.7500000), wk =   0.0019531
        k(  112) = (   0.1250000   0.6250000   0.8750000), wk =   0.0019531
        k(  113) = (   0.1250000   0.7500000   0.0000000), wk =   0.0019531
        k(  114) = (   0.1250000   0.7500000   0.1250000), wk =   0.0019531
        k(  115) = (   0.1250000   0.7500000   0.2500000), wk =   0.0019531
        k(  116) = (   0.1250000   0.7500000   0.3750000), wk =   0.0019531
        k(  117) = (   0.1250000   0.7500000   0.5000000), wk =   0.0019531
        k(  118) = (   0.1250000   0.7500000   0.6250000), wk =   0.0019531
        k(  119) = (   0.1250000   0.7500000   0.7500000), wk =   0.0019531
        k(  120) = (   0.1250000   0.7500000   0.8750000), wk =   0.0019531
        k(  121) = (   0.1250000   0.8750000   0.0000000), wk =   0.0019531
        k(  122) = (   0.1250000   0.8750000   0.1250000), wk =   0.0019531
        k(  123) = (   0.1250000   0.8750000   0.2500000), wk =   0.0019531
        k(  124) = (   0.1250000   0.8750000   0.3750000), wk =   0.0019531
        k(  125) = (   0.1250000   0.8750000   0.5000000), wk =   0.0019531
        k(  126) = (   0.1250000   0.8750000   0.6250000), wk =   0.0019531
        k(  127) = (   0.1250000   0.8750000   0.7500000), wk =   0.0019531
        k(  128) = (   0.1250000   0.8750000   0.8750000), wk =   0.0019531
        k(  129) = (   0.2500000   0.0000000   0.0000000), wk =   0.0019531
        k(  130) = (   0.2500000   0.0000000   0.1250000), wk =   0.0019531
        k(  131) = (   0.2500000   0.0000000   0.2500000), wk =   0.0019531
        k(  132) = (   0.2500000   0.0000000   0.3750000), wk =   0.0019531
        k(  133) = (   0.2500000   0.0000000   0.5000000), wk =   0.0019531
        k(  134) = (   0.2500000   0.0000000   0.6250000), wk =   0.0019531
        k(  135) = (   0.2500000   0.0000000   0.7500000), wk =   0.0019531
        k(  136) = (   0.2500000   0.0000000   0.8750000), wk =   0.0019531
        k(  137) = (   0.2500000   0.1250000   0.0000000), wk =   0.0019531
        k(  138) = (   0.2500000   0.1250000   0.1250000), wk =   0.0019531
        k(  139) = (   0.2500000   0.1250000   0.2500000), wk =   0.0019531
        k(  140) = (   0.2500000   0.1250000   0.3750000), wk =   0.0019531
        k(  141) = (   0.2500000   0.1250000   0.5000000), wk =   0.0019531
        k(  142) = (   0.2500000   0.1250000   0.6250000), wk =   0.0019531
        k(  143) = (   0.2500000   0.1250000   0.7500000), wk =   0.0019531
        k(  144) = (   0.2500000   0.1250000   0.8750000), wk =   0.0019531
        k(  145) = (   0.2500000   0.2500000   0.0000000), wk =   0.0019531
        k(  146) = (   0.2500000   0.2500000   0.1250000), wk =   0.0019531
        k(  147) = (   0.2500000   0.2500000   0.2500000), wk =   0.0019531
        k(  148) = (   0.2500000   0.2500000   0.3750000), wk =   0.0019531
        k(  149) = (   0.2500000   0.2500000   0.5000000), wk =   0.0019531
        k(  150) = (   0.2500000   0.2500000   0.6250000), wk =   0.0019531
        k(  151) = (   0.2500000   0.2500000   0.7500000), wk =   0.0019531
        k(  152) = (   0.2500000   0.2500000   0.8750000), wk =   0.0019531
        k(  153) = (   0.2500000   0.3750000   0.0000000), wk =   0.0019531
        k(  154) = (   0.2500000   0.3750000   0.1250000), wk =   0.0019531
        k(  155) = (   0.2500000   0.3750000   0.2500000), wk =   0.0019531
        k(  156) = (   0.2500000   0.3750000   0.3750000), wk =   0.0019531
        k(  157) = (   0.2500000   0.3750000   0.5000000), wk =   0.0019531
        k(  158) = (   0.2500000   0.3750000   0.6250000), wk =   0.0019531
        k(  159) = (   0.2500000   0.3750000   0.7500000), wk =   0.0019531
        k(  160) = (   0.2500000   0.3750000   0.8750000), wk =   0.0019531
        k(  161) = (   0.2500000   0.5000000   0.0000000), wk =   0.0019531
        k(  162) = (   0.2500000   0.5000000   0.1250000), wk =   0.0019531
        k(  163) = (   0.2500000   0.5000000   0.2500000), wk =   0.0019531
        k(  164) = (   0.2500000   0.5000000   0.3750000), wk =   0.0019531
        k(  165) = (   0.2500000   0.5000000   0.5000000), wk =   0.0019531
        k(  166) = (   0.2500000   0.5000000   0.6250000), wk =   0.0019531
        k(  167) = (   0.2500000   0.5000000   0.7500000), wk =   0.0019531
        k(  168) = (   0.2500000   0.5000000   0.8750000), wk =   0.0019531
        k(  169) = (   0.2500000   0.6250000   0.0000000), wk =   0.0019531
        k(  170) = (   0.2500000   0.6250000   0.1250000), wk =   0.0019531
        k(  171) = (   0.2500000   0.6250000   0.2500000), wk =   0.0019531
        k(  172) = (   0.2500000   0.6250000   0.3750000), wk =   0.0019531
        k(  173) = (   0.2500000   0.6250000   0.5000000), wk =   0.0019531
        k(  174) = (   0.2500000   0.6250000   0.6250000), wk =   0.0019531
        k(  175) = (   0.2500000   0.6250000   0.7500000), wk =   0.0019531
        k(  176) = (   0.2500000   0.6250000   0.8750000), wk =   0.0019531
        k(  177) = (   0.2500000   0.7500000   0.0000000), wk =   0.0019531
        k(  178) = (   0.2500000   0.7500000   0.1250000), wk =   0.0019531
        k(  179) = (   0.2500000   0.7500000   0.2500000), wk =   0.0019531
        k(  180) = (   0.2500000   0.7500000   0.3750000), wk =   0.0019531
        k(  181) = (   0.2500000   0.7500000   0.5000000), wk =   0.0019531
        k(  182) = (   0.2500000   0.7500000   0.6250000), wk =   0.0019531
        k(  183) = (   0.2500000   0.7500000   0.7500000), wk =   0.0019531
        k(  184) = (   0.2500000   0.7500000   0.8750000), wk =   0.0019531
        k(  185) = (   0.2500000   0.8750000   0.0000000), wk =   0.0019531
        k(  186) = (   0.2500000   0.8750000   0.1250000), wk =   0.0019531
        k(  187) = (   0.2500000   0.8750000   0.2500000), wk =   0.0019531
        k(  188) = (   0.2500000   0.8750000   0.3750000), wk =   0.0019531
        k(  189) = (   0.2500000   0.8750000   0.5000000), wk =   0.0019531
        k(  190) = (   0.2500000   0.8750000   0.6250000), wk =   0.0019531
        k(  191) = (   0.2500000   0.8750000   0.7500000), wk =   0.0019531
        k(  192) = (   0.2500000   0.8750000   0.8750000), wk =   0.0019531
        k(  193) = (   0.3750000   0.0000000   0.0000000), wk =   0.0019531
        k(  194) = (   0.3750000   0.0000000   0.1250000), wk =   0.0019531
        k(  195) = (   0.3750000   0.0000000   0.2500000), wk =   0.0019531
        k(  196) = (   0.3750000   0.0000000   0.3750000), wk =   0.0019531
        k(  197) = (   0.3750000   0.0000000   0.5000000), wk =   0.0019531
        k(  198) = (   0.3750000   0.0000000   0.6250000), wk =   0.0019531
        k(  199) = (   0.3750000   0.0000000   0.7500000), wk =   0.0019531
        k(  200) = (   0.3750000   0.0000000   0.8750000), wk =   0.0019531
        k(  201) = (   0.3750000   0.1250000   0.0000000), wk =   0.0019531
        k(  202) = (   0.3750000   0.1250000   0.1250000), wk =   0.0019531
        k(  203) = (   0.3750000   0.1250000   0.2500000), wk =   0.0019531
        k(  204) = (   0.3750000   0.1250000   0.3750000), wk =   0.0019531
        k(  205) = (   0.3750000   0.1250000   0.5000000), wk =   0.0019531
        k(  206) = (   0.3750000   0.1250000   0.6250000), wk =   0.0019531
        k(  207) = (   0.3750000   0.1250000   0.7500000), wk =   0.0019531
        k(  208) = (   0.3750000   0.1250000   0.8750000), wk =   0.0019531
        k(  209) = (   0.3750000   0.2500000   0.0000000), wk =   0.0019531
        k(  210) = (   0.3750000   0.2500000   0.1250000), wk =   0.0019531
        k(  211) = (   0.3750000   0.2500000   0.2500000), wk =   0.0019531
        k(  212) = (   0.3750000   0.2500000   0.3750000), wk =   0.0019531
        k(  213) = (   0.3750000   0.2500000   0.5000000), wk =   0.0019531
        k(  214) = (   0.3750000   0.2500000   0.6250000), wk =   0.0019531
        k(  215) = (   0.3750000   0.2500000   0.7500000), wk =   0.0019531
        k(  216) = (   0.3750000   0.2500000   0.8750000), wk =   0.0019531
        k(  217) = (   0.3750000   0.3750000   0.0000000), wk =   0.0019531
        k(  218) = (   0.3750000   0.3750000   0.1250000), wk =   0.0019531
        k(  219) = (   0.3750000   0.3750000   0.2500000), wk =   0.0019531
        k(  220) = (   0.3750000   0.3750000   0.3750000), wk =   0.0019531
        k(  221) = (   0.3750000   0.3750000   0.5000000), wk =   0.0019531
        k(  222) = (   0.3750000   0.3750000   0.6250000), wk =   0.0019531
        k(  223) = (   0.3750000   0.3750000   0.7500000), wk =   0.0019531
        k(  224) = (   0.3750000   0.3750000   0.8750000), wk =   0.0019531
        k(  225) = (   0.3750000   0.5000000   0.0000000), wk =   0.0019531
        k(  226) = (   0.3750000   0.5000000   0.1250000), wk =   0.0019531
        k(  227) = (   0.3750000   0.5000000   0.2500000), wk =   0.0019531
        k(  228) = (   0.3750000   0.5000000   0.3750000), wk =   0.0019531
        k(  229) = (   0.3750000   0.5000000   0.5000000), wk =   0.0019531
        k(  230) = (   0.3750000   0.5000000   0.6250000), wk =   0.0019531
        k(  231) = (   0.3750000   0.5000000   0.7500000), wk =   0.0019531
        k(  232) = (   0.3750000   0.5000000   0.8750000), wk =   0.0019531
        k(  233) = (   0.3750000   0.6250000   0.0000000), wk =   0.0019531
        k(  234) = (   0.3750000   0.6250000   0.1250000), wk =   0.0019531
        k(  235) = (   0.3750000   0.6250000   0.2500000), wk =   0.0019531
        k(  236) = (   0.3750000   0.6250000   0.3750000), wk =   0.0019531
        k(  237) = (   0.3750000   0.6250000   0.5000000), wk =   0.0019531
        k(  238) = (   0.3750000   0.6250000   0.6250000), wk =   0.0019531
        k(  239) = (   0.3750000   0.6250000   0.7500000), wk =   0.0019531
        k(  240) = (   0.3750000   0.6250000   0.8750000), wk =   0.0019531
        k(  241) = (   0.3750000   0.7500000   0.0000000), wk =   0.0019531
        k(  242) = (   0.3750000   0.7500000   0.1250000), wk =   0.0019531
        k(  243) = (   0.3750000   0.7500000   0.2500000), wk =   0.0019531
        k(  244) = (   0.3750000   0.7500000   0.3750000), wk =   0.0019531
        k(  245) = (   0.3750000   0.7500000   0.5000000), wk =   0.0019531
        k(  246) = (   0.3750000   0.7500000   0.6250000), wk =   0.0019531
        k(  247) = (   0.3750000   0.7500000   0.7500000), wk =   0.0019531
        k(  248) = (   0.3750000   0.7500000   0.8750000), wk =   0.0019531
        k(  249) = (   0.3750000   0.8750000   0.0000000), wk =   0.0019531
        k(  250) = (   0.3750000   0.8750000   0.1250000), wk =   0.0019531
        k(  251) = (   0.3750000   0.8750000   0.2500000), wk =   0.0019531
        k(  252) = (   0.3750000   0.8750000   0.3750000), wk =   0.0019531
        k(  253) = (   0.3750000   0.8750000   0.5000000), wk =   0.0019531
        k(  254) = (   0.3750000   0.8750000   0.6250000), wk =   0.0019531
        k(  255) = (   0.3750000   0.8750000   0.7500000), wk =   0.0019531
        k(  256) = (   0.3750000   0.8750000   0.8750000), wk =   0.0019531
        k(  257) = (   0.5000000   0.0000000   0.0000000), wk =   0.0019531
        k(  258) = (   0.5000000   0.0000000   0.1250000), wk =   0.0019531
        k(  259) = (   0.5000000   0.0000000   0.2500000), wk =   0.0019531
        k(  260) = (   0.5000000   0.0000000   0.3750000), wk =   0.0019531
        k(  261) = (   0.5000000   0.0000000   0.5000000), wk =   0.0019531
        k(  262) = (   0.5000000   0.0000000   0.6250000), wk =   0.0019531
        k(  263) = (   0.5000000   0.0000000   0.7500000), wk =   0.0019531
        k(  264) = (   0.5000000   0.0000000   0.8750000), wk =   0.0019531
        k(  265) = (   0.5000000   0.1250000   0.0000000), wk =   0.0019531
        k(  266) = (   0.5000000   0.1250000   0.1250000), wk =   0.0019531
        k(  267) = (   0.5000000   0.1250000   0.2500000), wk =   0.0019531
        k(  268) = (   0.5000000   0.1250000   0.3750000), wk =   0.0019531
        k(  269) = (   0.5000000   0.1250000   0.5000000), wk =   0.0019531
        k(  270) = (   0.5000000   0.1250000   0.6250000), wk =   0.0019531
        k(  271) = (   0.5000000   0.1250000   0.7500000), wk =   0.0019531
        k(  272) = (   0.5000000   0.1250000   0.8750000), wk =   0.0019531
        k(  273) = (   0.5000000   0.2500000   0.0000000), wk =   0.0019531
        k(  274) = (   0.5000000   0.2500000   0.1250000), wk =   0.0019531
        k(  275) = (   0.5000000   0.2500000   0.2500000), wk =   0.0019531
        k(  276) = (   0.5000000   0.2500000   0.3750000), wk =   0.0019531
        k(  277) = (   0.5000000   0.2500000   0.5000000), wk =   0.0019531
        k(  278) = (   0.5000000   0.2500000   0.6250000), wk =   0.0019531
        k(  279) = (   0.5000000   0.2500000   0.7500000), wk =   0.0019531
        k(  280) = (   0.5000000   0.2500000   0.8750000), wk =   0.0019531
        k(  281) = (   0.5000000   0.3750000   0.0000000), wk =   0.0019531
        k(  282) = (   0.5000000   0.3750000   0.1250000), wk =   0.0019531
        k(  283) = (   0.5000000   0.3750000   0.2500000), wk =   0.0019531
        k(  284) = (   0.5000000   0.3750000   0.3750000), wk =   0.0019531
        k(  285) = (   0.5000000   0.3750000   0.5000000), wk =   0.0019531
        k(  286) = (   0.5000000   0.3750000   0.6250000), wk =   0.0019531
        k(  287) = (   0.5000000   0.3750000   0.7500000), wk =   0.0019531
        k(  288) = (   0.5000000   0.3750000   0.8750000), wk =   0.0019531
        k(  289) = (   0.5000000   0.5000000   0.0000000), wk =   0.0019531
        k(  290) = (   0.5000000   0.5000000   0.1250000), wk =   0.0019531
        k(  291) = (   0.5000000   0.5000000   0.2500000), wk =   0.0019531
        k(  292) = (   0.5000000   0.5000000   0.3750000), wk =   0.0019531
        k(  293) = (   0.5000000   0.5000000   0.5000000), wk =   0.0019531
        k(  294) = (   0.5000000   0.5000000   0.6250000), wk =   0.0019531
        k(  295) = (   0.5000000   0.5000000   0.7500000), wk =   0.0019531
        k(  296) = (   0.5000000   0.5000000   0.8750000), wk =   0.0019531
        k(  297) = (   0.5000000   0.6250000   0.0000000), wk =   0.0019531
        k(  298) = (   0.5000000   0.6250000   0.1250000), wk =   0.0019531
        k(  299) = (   0.5000000   0.6250000   0.2500000), wk =   0.0019531
        k(  300) = (   0.5000000   0.6250000   0.3750000), wk =   0.0019531
        k(  301) = (   0.5000000   0.6250000   0.5000000), wk =   0.0019531
        k(  302) = (   0.5000000   0.6250000   0.6250000), wk =   0.0019531
        k(  303) = (   0.5000000   0.6250000   0.7500000), wk =   0.0019531
        k(  304) = (   0.5000000   0.6250000   0.8750000), wk =   0.0019531
        k(  305) = (   0.5000000   0.7500000   0.0000000), wk =   0.0019531
        k(  306) = (   0.5000000   0.7500000   0.1250000), wk =   0.0019531
        k(  307) = (   0.5000000   0.7500000   0.2500000), wk =   0.0019531
        k(  308) = (   0.5000000   0.7500000   0.3750000), wk =   0.0019531
        k(  309) = (   0.5000000   0.7500000   0.5000000), wk =   0.0019531
        k(  310) = (   0.5000000   0.7500000   0.6250000), wk =   0.0019531
        k(  311) = (   0.5000000   0.7500000   0.7500000), wk =   0.0019531
        k(  312) = (   0.5000000   0.7500000   0.8750000), wk =   0.0019531
        k(  313) = (   0.5000000   0.8750000   0.0000000), wk =   0.0019531
        k(  314) = (   0.5000000   0.8750000   0.1250000), wk =   0.0019531
        k(  315) = (   0.5000000   0.8750000   0.2500000), wk =   0.0019531
        k(  316) = (   0.5000000   0.8750000   0.3750000), wk =   0.0019531
        k(  317) = (   0.5000000   0.8750000   0.5000000), wk =   0.0019531
        k(  318) = (   0.5000000   0.8750000   0.6250000), wk =   0.0019531
        k(  319) = (   0.5000000   0.8750000   0.7500000), wk =   0.0019531
        k(  320) = (   0.5000000   0.8750000   0.8750000), wk =   0.0019531
        k(  321) = (   0.6250000   0.0000000   0.0000000), wk =   0.0019531
        k(  322) = (   0.6250000   0.0000000   0.1250000), wk =   0.0019531
        k(  323) = (   0.6250000   0.0000000   0.2500000), wk =   0.0019531
        k(  324) = (   0.6250000   0.0000000   0.3750000), wk =   0.0019531
        k(  325) = (   0.6250000   0.0000000   0.5000000), wk =   0.0019531
        k(  326) = (   0.6250000   0.0000000   0.6250000), wk =   0.0019531
[...]

          k =-1.2500 0.0000 0.5000 (   755 PWs)   bands (ev):

    -4.4119  -4.4101   0.1460   0.1591   1.6294   1.6437   3.1300   3.1340
     8.8000   8.8063  10.5636  10.5705  11.1607  11.1756  12.8880  12.8893

     occupation numbers 
     1.0000   1.0000   1.0000   1.0000   1.0000   1.0000   1.0000   1.0000
     0.0000   0.0000   0.0000   0.0000   0.0000   0.0000   0.0000   0.0000

          k =-1.3750 0.1250 0.3750 (   768 PWs)   bands (ev):

    -4.8685  -4.8676   0.3569   0.3634   2.5013   2.5103   3.6607   3.6652
     8.8955   8.9041   9.7344   9.7406  10.9681  10.9780  12.0346  12.0410

     occupation numbers 
     1.0000   1.0000   1.0000   1.0000   1.0000   1.0000   1.0000   1.0000
     0.0000   0.0000   0.0000   0.0000   0.0000   0.0000   0.0000   0.0000

          k =-1.5000 0.2500 0.2500 (   775 PWs)   bands (ev):

    -5.3031  -5.3028   0.6904   0.6930   3.7394   3.7442   3.9095   3.9100
     8.4458   8.4460   9.8295   9.8340  10.7764  10.7764  11.3821  11.3834

     occupation numbers 
     1.0000   1.0000   1.0000   1.0000   1.0000   1.0000   1.0000   1.0000
     0.0000   0.0000   0.0000   0.0000   0.0000   0.0000   0.0000   0.0000

          k =-0.5000-0.5000 1.2500 (   768 PWs)   bands (ev):

    -4.9171  -4.9164  -0.1032  -0.0999   3.2242   3.2290   4.1520   4.1521
     8.5069   8.5095   9.7484   9.7491  10.2499  10.2500  13.1516  13.1610

     occupation numbers 
     1.0000   1.0000   1.0000   1.0000   1.0000   1.0000   1.0006   1.0006
     0.0000   0.0000   0.0000   0.0000   0.0000   0.0000   0.0000   0.0000

          k =-0.6250-0.3750 1.1250 (   768 PWs)   bands (ev):

    -4.8685  -4.8676   0.3569   0.3634   2.5013   2.5103   3.6607   3.6652
     8.8955   8.9041   9.7344   9.7406  10.9681  10.9780  12.0346  12.0410

     occupation numbers 
     1.0000   1.0000   1.0000   1.0000   1.0000   1.0000   1.0000   1.0000
     0.0000   0.0000   0.0000   0.0000   0.0000   0.0000   0.0000   0.0000

          k =-0.7500-0.2500 1.0000 (   763 PWs)   bands (ev):

    -4.6405  -4.6396   0.3595   0.3661   2.4586   2.4708   2.9715   2.9803
     7.9532   7.9575   8.8545   8.8625  11.7934  11.7951  14.0264  14.0333

     occupation numbers 
     1.0000   1.0000   1.0000   1.0000   1.0000   1.0000   1.0000   1.0000
     0.0000   0.0000   0.0000   0.0000   0.0000   0.0000   0.0000   0.0000

          k =-0.8750-0.1250 0.8750 (   762 PWs)   bands (ev):

    -4.3356  -4.3347  -0.0712  -0.0665   2.3798   2.3853   3.0079   3.0081
     7.0113   7.0138   8.2330   8.2387  14.1771  14.1788  14.2365  14.2367

     occupation numbers 
     1.0000   1.0000   1.0000   1.0000   1.0000   1.0000   1.0000   1.0000
     0.0000   0.0000   0.0000   0.0000   0.0000   0.0000   0.0000   0.0000

          k =-1.0000 0.0000 0.7500 (   760 PWs)   bands (ev):

    -4.1758  -4.1743  -0.1744  -0.1673   2.3123   2.3261   2.4642   2.4696
     7.6119   7.6149   8.5322   8.5398  13.5694  13.5765  13.9280  13.9409

     occupation numbers 
     1.0000   1.0000   1.0000   1.0000   1.0000   1.0000   1.0000   1.0000
     0.0000   0.0000   0.0000   0.0000   0.0000   0.0000   0.0000   0.0000

          k =-1.1250 0.1250 0.6250 (   757 PWs)   bands (ev):

    -4.2893  -4.2875   0.0133   0.0244   1.7823   1.7950   2.8074   2.8117
     8.3429   8.3466  10.1850  10.1948  11.4311  11.4353  13.3003  13.3061

     occupation numbers 
     1.0000   1.0000   1.0000   1.0000   1.0000   1.0000   1.0000   1.0000
     0.0000   0.0000   0.0000   0.0000   0.0000   0.0000   0.0000   0.0000

          k =-1.2500 0.2500 0.5000 (   764 PWs)   bands (ev):

    -4.5460  -4.5446  -0.1972  -0.1906   2.3670   2.3754   3.4752   3.4792
     8.8898   8.9010   9.4722   9.4807  11.8133  11.8221  12.6266  12.6342

     occupation numbers 
     1.0000   1.0000   1.0000   1.0000   1.0000   1.0000   1.0000   1.0000
     0.0000   0.0000   0.0000   0.0000   0.0000   0.0000   0.0000   0.0000

          k =-1.3750 0.3750 0.3750 (   767 PWs)   bands (ev):

    -4.7887  -4.7880  -0.3414  -0.3384   3.3726   3.3771   3.9254   3.9255
     8.3478   8.3489   9.6397   9.6413  10.4139  10.4139  13.0171  13.0247

     occupation numbers 
     1.0000   1.0000   1.0000   1.0000   1.0000   1.0000   1.0000   1.0000
     0.0000   0.0000   0.0000   0.0000   0.0000   0.0000   0.0000   0.0000

          k =-0.3750-0.3750 1.3750 (   767 PWs)   bands (ev):

    -4.7887  -4.7880  -0.3414  -0.3384   3.3726   3.3771   3.9254   3.9255
     8.3478   8.3489   9.6397   9.6413  10.4139  10.4139  13.0171  13.0247

     occupation numbers 
     1.0000   1.0000   1.0000   1.0000   1.0000   1.0000   1.0000   1.0000
     0.0000   0.0000   0.0000   0.0000   0.0000   0.0000   0.0000   0.0000

          k =-0.5000-0.2500 1.2500 (   764 PWs)   bands (ev):

    -4.5460  -4.5446  -0.1972  -0.1906   2.3670   2.3754   3.4752   3.4792
     8.8898   8.9010   9.4722   9.4807  11.8133  11.8221  12.6266  12.6342

     occupation numbers 
     1.0000   1.0000   1.0000   1.0000   1.0000   1.0000   1.0000   1.0000
     0.0000   0.0000   0.0000   0.0000   0.0000   0.0000   0.0000   0.0000

          k =-0.6250-0.1250 1.1250 (   757 PWs)   bands (ev):

    -4.2893  -4.2875   0.0133   0.0244   1.7823   1.7950   2.8074   2.8117
     8.3429   8.3466  10.1850  10.1948  11.4311  11.4353  13.3003  13.3061

     occupation numbers 
     1.0000   1.0000   1.0000   1.0000   1.0000   1.0000   1.0000   1.0000
     0.0000   0.0000   0.0000   0.0000   0.0000   0.0000   0.0000   0.0000

          k =-0.7500 0.0000 1.0000 (   760 PWs)   bands (ev):

    -4.1758  -4.1743  -0.1744  -0.1673   2.3123   2.3261   2.4642   2.4696
     7.6119   7.6149   8.5322   8.5398  13.5694  13.5765  13.9280  13.9409

     occupation numbers 
     1.0000   1.0000   1.0000   1.0000   1.0000   1.0000   1.0000   1.0000
     0.0000   0.0000   0.0000   0.0000   0.0000   0.0000   0.0000   0.0000

          k =-0.8750 0.1250 0.8750 (   762 PWs)   bands (ev):

    -4.3356  -4.3347  -0.0712  -0.0665   2.3798   2.3853   3.0079   3.0081
     7.0113   7.0138   8.2330   8.2387  14.1771  14.1788  14.2365  14.2367

     occupation numbers 
     1.0000   1.0000   1.0000   1.0000   1.0000   1.0000   1.0000   1.0000
     0.0000   0.0000   0.0000   0.0000   0.0000   0.0000   0.0000   0.0000

          k =-1.0000 0.2500 0.7500 (   763 PWs)   bands (ev):

    -4.6405  -4.6396   0.3595   0.3661   2.4586   2.4708   2.9715   2.9803
     7.9532   7.9575   8.8545   8.8625  11.7934  11.7951  14.0264  14.0333

     occupation numbers 
     1.0000   1.0000   1.0000   1.0000   1.0000   1.0000   1.0000   1.0000
     0.0000   0.0000   0.0000   0.0000   0.0000   0.0000   0.0000   0.0000

          k =-1.1250 0.3750 0.6250 (   768 PWs)   bands (ev):

    -4.8685  -4.8676   0.3569   0.3634   2.5013   2.5103   3.6607   3.6652
     8.8955   8.9041   9.7344   9.7406  10.9681  10.9780  12.0346  12.0410

     occupation numbers 
     1.0000   1.0000   1.0000   1.0000   1.0000   1.0000   1.0000   1.0000
     0.0000   0.0000   0.0000   0.0000   0.0000   0.0000   0.0000   0.0000

          k =-1.2500 0.5000 0.5000 (   768 PWs)   bands (ev):

    -4.9171  -4.9164  -0.1032  -0.0999   3.2242   3.2290   4.1520   4.1521
     8.5069   8.5095   9.7484   9.7491  10.2499  10.2500  13.1516  13.1610

     occupation numbers 
     1.0000   1.0000   1.0000   1.0000   1.0000   1.0000   1.0006   1.0006
     0.0000   0.0000   0.0000   0.0000   0.0000   0.0000   0.0000   0.0000

          k =-0.2500-0.2500 1.5000 (   775 PWs)   bands (ev):

    -5.3031  -5.3028   0.6904   0.6930   3.7394   3.7442   3.9095   3.9100
     8.4458   8.4460   9.8295   9.8340  10.7764  10.7764  11.3821  11.3834

     occupation numbers 
     1.0000   1.0000   1.0000   1.0000   1.0000   1.0000   1.0000   1.0000
     0.0000   0.0000   0.0000   0.0000   0.0000   0.0000   0.0000   0.0000

          k =-0.3750-0.1250 1.3750 (   768 PWs)   bands (ev):

    -4.8685  -4.8676   0.3569   0.3634   2.5013   2.5103   3.6607   3.6652
     8.8955   8.9041   9.7344   9.7406  10.9681  10.9780  12.0346  12.0410

     occupation numbers 
     1.0000   1.0000   1.0000   1.0000   1.0000   1.0000   1.0000   1.0000
     0.0000   0.0000   0.0000   0.0000   0.0000   0.0000   0.0000   0.0000

          k =-0.5000 0.0000 1.2500 (   755 PWs)   bands (ev):

    -4.4119  -4.4101   0.1460   0.1591   1.6294   1.6437   3.1300   3.1340
     8.8000   8.8063  10.5636  10.5705  11.1607  11.1756  12.8880  12.8893

     occupation numbers 
     1.0000   1.0000   1.0000   1.0000   1.0000   1.0000   1.0000   1.0000
     0.0000   0.0000   0.0000   0.0000   0.0000   0.0000   0.0000   0.0000

          k =-0.6250 0.1250 1.1250 (   757 PWs)   bands (ev):

    -4.2893  -4.2875   0.0133   0.0244   1.7823   1.7950   2.8074   2.8117
     8.3429   8.3466  10.1850  10.1948  11.4311  11.4353  13.3003  13.3061

     occupation numbers 
     1.0000   1.0000   1.0000   1.0000   1.0000   1.0000   1.0000   1.0000
     0.0000   0.0000   0.0000   0.0000   0.0000   0.0000   0.0000   0.0000

          k =-0.7500 0.2500 1.0000 (   763 PWs)   bands (ev):

    -4.6405  -4.6396   0.3595   0.3661   2.4586   2.4708   2.9715   2.9803
     7.9532   7.9575   8.8545   8.8625  11.7934  11.7951  14.0264  14.0333

     occupation numbers 
     1.0000   1.0000   1.0000   1.0000   1.0000   1.0000   1.0000   1.0000
     0.0000   0.0000   0.0000   0.0000   0.0000   0.0000   0.0000   0.0000

          k =-0.8750 0.3750 0.8750 (   768 PWs)   bands (ev):

    -5.1279  -5.1275   0.9885   0.9924   3.0677   3.0731   3.4097   3.4101
     7.7120   7.7141   8.9330   8.9391  11.9817  11.9817  12.4232  12.4232

     occupation numbers 
     1.0000   1.0000   1.0000   1.0000   1.0000   1.0000   1.0000   1.0000
     0.0000   0.0000   0.0000   0.0000   0.0000   0.0000   0.0000   0.0000

          k =-1.0000 0.5000 0.7500 (   765 PWs)   bands (ev):

    -5.4594  -5.4590   1.4602   1.4659   3.0641   3.0732   4.0403   4.0454
     8.7995   8.8045   9.7578   9.7656  10.3860  10.3914  11.7372  11.7431

     occupation numbers 
     1.0000   1.0000   1.0000   1.0000   1.0000   1.0000   1.0001   1.0001
     0.0000   0.0000   0.0000   0.0000   0.0000   0.0000   0.0000   0.0000

          k =-1.1250 0.6250 0.6250 (   773 PWs)   bands (ev):

    -5.5222  -5.5219   1.2053   1.2091   3.3729   3.3786   4.5057   4.5057
     8.8668   8.8711  10.0676  10.0717  10.2495  10.2497  11.7047  11.7120

     occupation numbers 
     1.0000   1.0000   1.0000   1.0000   1.0000   1.0000   1.0502   1.0502
     0.0000   0.0000   0.0000   0.0000   0.0000   0.0000   0.0000   0.0000

          k =-0.1250-0.1250 1.6250 (   774 PWs)   bands (ev):

    -5.9102  -5.9101   2.3403   2.3428   4.1122   4.1137   4.1861   4.1887
     8.6707   8.6713   9.7007   9.7064  10.7228  10.7239  10.8719  10.8720

     occupation numbers 
     1.0000   1.0000   1.0000   1.0000   1.0003   1.0003   1.0011   1.0011
     0.0000   0.0000   0.0000   0.0000   0.0000   0.0000   0.0000   0.0000

          k =-0.2500 0.0000 1.5000 (   765 PWs)   bands (ev):

    -5.4594  -5.4590   1.4602   1.4659   3.0641   3.0732   4.0403   4.0454
     8.7995   8.8045   9.7578   9.7656  10.3860  10.3914  11.7372  11.7431

     occupation numbers 
     1.0000   1.0000   1.0000   1.0000   1.0000   1.0000   1.0001   1.0001
     0.0000   0.0000   0.0000   0.0000   0.0000   0.0000   0.0000   0.0000

          k =-0.3750 0.1250 1.3750 (   768 PWs)   bands (ev):

    -4.8685  -4.8676   0.3569   0.3634   2.5013   2.5103   3.6607   3.6652
     8.8955   8.9041   9.7344   9.7406  10.9681  10.9780  12.0346  12.0410

     occupation numbers 
     1.0000   1.0000   1.0000   1.0000   1.0000   1.0000   1.0000   1.0000
     0.0000   0.0000   0.0000   0.0000   0.0000   0.0000   0.0000   0.0000

          k =-0.5000 0.2500 1.2500 (   764 PWs)   bands (ev):

    -4.5460  -4.5446  -0.1972  -0.1906   2.3670   2.3754   3.4752   3.4792
     8.8898   8.9010   9.4722   9.4807  11.8133  11.8221  12.6266  12.6342

     occupation numbers 
     1.0000   1.0000   1.0000   1.0000   1.0000   1.0000   1.0000   1.0000
     0.0000   0.0000   0.0000   0.0000   0.0000   0.0000   0.0000   0.0000

          k =-0.6250 0.3750 1.1250 (   768 PWs)   bands (ev):

    -4.8685  -4.8676   0.3569   0.3634   2.5013   2.5103   3.6607   3.6652
     8.8955   8.9041   9.7344   9.7406  10.9681  10.9780  12.0346  12.0410

     occupation numbers 
     1.0000   1.0000   1.0000   1.0000   1.0000   1.0000   1.0000   1.0000
     0.0000   0.0000   0.0000   0.0000   0.0000   0.0000   0.0000   0.0000

          k =-0.7500 0.5000 1.0000 (   765 PWs)   bands (ev):

    -5.4594  -5.4590   1.4602   1.4659   3.0641   3.0732   4.0403   4.0454
     8.7995   8.8045   9.7578   9.7656  10.3860  10.3914  11.7372  11.7431

     occupation numbers 
     1.0000   1.0000   1.0000   1.0000   1.0000   1.0000   1.0001   1.0001
     0.0000   0.0000   0.0000   0.0000   0.0000   0.0000   0.0000   0.0000

          k =-0.8750 0.6250 0.8750 (   774 PWs)   bands (ev):

    -5.9102  -5.9101   2.3403   2.3428   4.1122   4.1137   4.1861   4.1887
     8.6707   8.6713   9.7007   9.7064  10.7228  10.7239  10.8719  10.8720

     occupation numbers 
     1.0000   1.0000   1.0000   1.0000   1.0003   1.0003   1.0011   1.0011
     0.0000   0.0000   0.0000   0.0000   0.0000   0.0000   0.0000   0.0000

          k =-1.0000 0.7500 0.7500 (   775 PWs)   bands (ev):

    -6.0720  -6.0719   2.7672   2.7717   3.9464   3.9527   4.8065   4.8066
     9.1620   9.1706   9.6563   9.6646   9.9328   9.9330  10.9588  10.9635

     occupation numbers 
     1.0000   1.0000   1.0000   1.0000   1.0000   1.0000   0.9458   0.9457
     0.0000   0.0000   0.0000   0.0000   0.0000   0.0000   0.0000   0.0000

          k = 0.0000 0.0000 1.7500 (   769 PWs)   bands (ev):

    -6.2905  -6.2905   3.8369   3.8369   4.4668   4.4668   4.4981   4.4981
     8.8929   8.8929   9.3005   9.3005  10.2788  10.2788  10.2883  10.2883

     occupation numbers 
     1.0000   1.0000   1.0000   1.0000   1.0374   1.0374   1.0476   1.0476
     0.0000   0.0000   0.0000   0.0000   0.0000   0.0000   0.0000   0.0000

          k =-0.1250 0.1250 1.6250 (   774 PWs)   bands (ev):

    -5.9102  -5.9101   2.3403   2.3428   4.1122   4.1137   4.1861   4.1887
     8.6707   8.6713   9.7007   9.7064  10.7228  10.7239  10.8719  10.8720

     occupation numbers 
     1.0000   1.0000   1.0000   1.0000   1.0003   1.0003   1.0011   1.0011
     0.0000   0.0000   0.0000   0.0000   0.0000   0.0000   0.0000   0.0000

          k =-0.2500 0.2500 1.5000 (   775 PWs)   bands (ev):

    -5.3031  -5.3028   0.6904   0.6930   3.7394   3.7442   3.9095   3.9100
     8.4458   8.4460   9.8295   9.8340  10.7764  10.7764  11.3821  11.3834

     occupation numbers 
     1.0000   1.0000   1.0000   1.0000   1.0000   1.0000   1.0000   1.0000
     0.0000   0.0000   0.0000   0.0000   0.0000   0.0000   0.0000   0.0000

          k =-0.3750 0.3750 1.3750 (   767 PWs)   bands (ev):

    -4.7887  -4.7880  -0.3414  -0.3384   3.3726   3.3771   3.9254   3.9255
     8.3478   8.3489   9.6397   9.6413  10.4139  10.4139  13.0171  13.0247

     occupation numbers 
     1.0000   1.0000   1.0000   1.0000   1.0000   1.0000   1.0000   1.0000
     0.0000   0.0000   0.0000   0.0000   0.0000   0.0000   0.0000   0.0000

          k =-0.5000 0.5000 1.2500 (   768 PWs)   bands (ev):

    -4.9171  -4.9164  -0.1032  -0.0999   3.2242   3.2290   4.1520   4.1521
     8.5069   8.5095   9.7484   9.7491  10.2499  10.2500  13.1516  13.1610

     occupation numbers 
     1.0000   1.0000   1.0000   1.0000   1.0000   1.0000   1.0006   1.0006
     0.0000   0.0000   0.0000   0.0000   0.0000   0.0000   0.0000   0.0000

          k =-0.6250 0.6250 1.1250 (   773 PWs)   bands (ev):

    -5.5222  -5.5219   1.2053   1.2091   3.3729   3.3786   4.5057   4.5057
     8.8668   8.8711  10.0676  10.0717  10.2495  10.2497  11.7047  11.7120

     occupation numbers 
     1.0000   1.0000   1.0000   1.0000   1.0000   1.0000   1.0502   1.0502
     0.0000   0.0000   0.0000   0.0000   0.0000   0.0000   0.0000   0.0000

          k =-0.7500 0.7500 1.0000 (   775 PWs)   bands (ev):

    -6.0720  -6.0719   2.7672   2.7717   3.9464   3.9527   4.8065   4.8066
     9.1620   9.1706   9.6563   9.6646   9.9328   9.9330  10.9588  10.9635

     occupation numbers 
     1.0000   1.0000   1.0000   1.0000   1.0000   1.0000   0.9458   0.9457
     0.0000   0.0000   0.0000   0.0000   0.0000   0.0000   0.0000   0.0000

          k =-0.8750 0.8750 0.8750 (   770 PWs)   bands (ev):

    -6.3480  -6.3480   3.7294   3.7294   4.7842   4.7842   4.8226   4.8226
     8.6270   8.6270   9.7747   9.7747   9.7932   9.7934  10.0172  10.0172

     occupation numbers 
     1.0000   1.0000   1.0000   1.0000   0.9829   0.9829   0.9155   0.9154
     0.0000   0.0000   0.0000   0.0000   0.0000   0.0000   0.0000   0.0000

     the Fermi energy is     5.0231 ev
     (compare with:     5.0231 eV, computed in scf)

     Writing output data file ../tmp/alp.save/

     init_run     :      0.47s CPU      0.47s WALL (       1 calls)
     electrons    :    107.02s CPU    113.14s WALL (       1 calls)

     Called by init_run:
     wfcinit      :      0.00s CPU      0.00s WALL (       1 calls)
     wfcinit:atom :      0.02s CPU      0.02s WALL (     512 calls)
     wfcinit:wfcr :      2.12s CPU      2.25s WALL (     512 calls)
     potinit      :      0.13s CPU      0.13s WALL (       1 calls)
     hinit0       :      0.23s CPU      0.23s WALL (       1 calls)

     Called by electrons:
     c_bands      :    107.00s CPU    113.12s WALL (       1 calls)
     v_of_rho     :      0.01s CPU      0.01s WALL (       1 calls)
     v_h          :      0.00s CPU      0.00s WALL (       1 calls)
     v_xc         :      0.01s CPU      0.01s WALL (       1 calls)
     newd         :      0.08s CPU      0.08s WALL (       1 calls)
     PAW_pot      :      0.12s CPU      0.12s WALL (       1 calls)

     Called by c_bands:
     init_us_2    :      0.04s CPU      0.04s WALL (     512 calls)
     cegterg      :    103.95s CPU    109.88s WALL (    1522 calls)

     Called by sum_band:

     Called by *egterg:
     cdiaghg      :      9.51s CPU     10.03s WALL (   25006 calls)
     cegterg:over :     10.05s CPU     10.64s WALL (   24494 calls)
     cegterg:upda :      4.59s CPU      4.81s WALL (   24494 calls)
     cegterg:last :     12.33s CPU     12.93s WALL (   18112 calls)
     cdiaghg:chol :      0.69s CPU      0.74s WALL (   25006 calls)
     cdiaghg:inve :      0.17s CPU      0.19s WALL (   25006 calls)
     cdiaghg:para :      1.64s CPU      1.73s WALL (   50012 calls)
     h_psi        :     57.24s CPU     60.62s WALL (   26528 calls)
     s_psi        :     10.59s CPU     11.25s WALL (   26528 calls)
     g_psi        :      0.52s CPU      0.54s WALL (   24494 calls)

     Called by h_psi:
     h_psi:calbec :      8.86s CPU      9.44s WALL (   26528 calls)
     vloc_psi     :     37.65s CPU     39.76s WALL (   26528 calls)
     add_vuspsi   :     10.58s CPU     11.26s WALL (   26528 calls)

     General routines
     calbec       :      8.83s CPU      9.42s WALL (   26528 calls)
     fft          :      0.01s CPU      0.01s WALL (      19 calls)
     ffts         :      0.00s CPU      0.00s WALL (       4 calls)
     fftw         :     31.74s CPU     33.53s WALL ( 1203232 calls)
     interpolate  :      0.00s CPU      0.00s WALL (       4 calls)
     davcio       :      0.03s CPU      0.04s WALL (    1024 calls)

     Parallel routines
     fft_scatt_xy :      4.83s CPU      5.09s WALL ( 1203255 calls)
     fft_scatt_yz :     11.08s CPU     11.79s WALL ( 1203255 calls)

     PAW routines
     PAW_pot      :      0.12s CPU      0.12s WALL (       1 calls)

     PWSCF        :   1m50.33s CPU   1m56.63s WALL


   This run was terminated on:  18:26:15  22Mar2024            

=------------------------------------------------------------------------------=
   JOB DONE.
=------------------------------------------------------------------------------=
